<LesHouchesEvents version="3.0">
<header>
<!--
#*********************************************************************
#                                                                    *
#                        MadGraph5_aMC@NLO                           *
#                                                                    *
#                           Going Beyond                             *
#                                                                    *
#                   http://madgraph.hep.uiuc.edu                     *
#                   http://madgraph.phys.ucl.ac.be                   *
#                   http://amcatnlo.cern.ch                          *
#                                                                    *
#                     The MadGraph5_aMC@NLO team                     *
#                                                                    *
#....................................................................*
#                                                                    *
# This file contains all the information necessary to reproduce      *
# the events generated:                                              *
#                                                                    *
# 1. software version                                                *
# 2. proc_card          : code generation info including model       *
# 3. param_card         : model primary parameters in the LH format  *
# 4. run_card           : running parameters (collider and cuts)     *
# 5. pythia_card        : present only if pythia has been run        *
# 6. pgs_card           : present only if pgs has been run           *
# 7. delphes_cards      : present only if delphes has been run       *
#                                                                    *
#                                                                    *
#*********************************************************************
-->
<MGVersion>
2.6.1
</MGVersion>
<MG5ProcCard>
<![CDATA[
#************************************************************
#*                     MadGraph5_aMC@NLO                    *
#*                                                          *
#*                *                       *                 *
#*                  *        * *        *                   *
#*                    * * * * 5 * * * *                     *
#*                  *        * *        *                   *
#*                *                       *                 *
#*                                                          *
#*                                                          *
#*         VERSION 2.6.1                 2017-12-12         *
#*                                                          *
#*    The MadGraph5_aMC@NLO Development Team - Find us at   *
#*    https://server06.fynu.ucl.ac.be/projects/madgraph     *
#*                                                          *
#************************************************************
#*                                                          *
#*               Command File for MadGraph5_aMC@NLO         *
#*                                                          *
#*     run as ./bin/mg5_aMC  filename                       *
#*                                                          *
#************************************************************
set group_subprocesses Auto
set ignore_six_quark_processes False
set loop_optimized_output True
set loop_color_flows False
set gauge unitary
set complex_mass_scheme False
set max_npoint_for_channel 0
import model sm
define p = g u c d s u~ c~ d~ s~
define j = g u c d s u~ c~ d~ s~
define l+ = e+ mu+
define l- = e- mu-
define vl = ve vm vt
define vl~ = ve~ vm~ vt~
import model LFV2
generate p p > e+ mu- e+ mu- / a Z
output /home/zaki/LFV-Collider/wrk_dir/m=40
]]>
</MG5ProcCard>
<MGProcCard>
#*********************************************************************
#                        MadGraph/MadEvent                           *
#                   http://madgraph.hep.uiuc.edu                     *
#                                                                    *
#                          proc_card.dat                             *
#*********************************************************************
#                                                                    *
#            This Files is generated by MADGRAPH 5                   *
#                                                                    *
# WARNING: This Files is generated for MADEVENT (compatibility issue)*
#          This files is NOT a valid MG4 proc_card.dat               *
#          Running this in MG4 will NEVER reproduce the result of MG5*
#                                                                    *
#*********************************************************************
#*********************************************************************
# Process(es) requested : mg2 input                                  *
#*********************************************************************
# Begin PROCESS # This is TAG. Do not modify this line
p p > e+ mu- e+ mu- / a Z           #Process
# Be carefull the coupling are here in MG5 convention
          
end_coup           # End the couplings input

done               # this tells MG there are no more procs
# End PROCESS  # This is TAG. Do not modify this line
#*********************************************************************
# Model information                                                  *
#*********************************************************************
# Begin MODEL  # This is TAG. Do not modify this line
LFV2
# End   MODEL  # This is TAG. Do not modify this line
#*********************************************************************
# Start multiparticle definitions                                    *
#*********************************************************************
# Begin MULTIPARTICLES # This is TAG. Do not modify this line

# End  MULTIPARTICLES # This is TAG. Do not modify this line
</MGProcCard>
<MGRunCard>
<![CDATA[
#*********************************************************************
#                       MadGraph5_aMC@NLO                            *
#                                                                    *
#                     run_card.dat MadEvent                          *
#                                                                    *
#  This file is used to set the parameters of the run.               *
#                                                                    *
#  Some notation/conventions:                                        *
#                                                                    *
#   Lines starting with a '# ' are info or comments                  *
#                                                                    *
#   mind the format:   value    = variable     ! comment             *
#*********************************************************************
#
#*******************                                                 
# Running parameters
#*******************                                                 
#                                                                    
#*********************************************************************
# Tag name for the run (one word)                                    *
#*********************************************************************
  tag_1	= run_tag ! name of the run 
#*********************************************************************
# Number of events and rnd seed                                      *
# Warning: Do not generate more than 1M events in a single run       *
# If you want to run Pythia, avoid more than 50k events in a run.    *
#*********************************************************************
  500	= nevents ! Number of unweighted events requested 
 21 = iseed ! rnd seed (0=assigned automatically=default))
#*********************************************************************
# Collider type and energy                                           *
# lpp: 0=No PDF, 1=proton, -1=antiproton, 2=photon from proton,      *
#                                         3=photon from electron     *
#*********************************************************************
  1	= lpp1 ! beam 1 type 
  1	= lpp2 ! beam 2 type
  4000.0	= ebeam1 ! beam 1 total energy in GeV
  4000.0	= ebeam2 ! beam 2 total energy in GeV
#*********************************************************************
# Beam polarization from -100 (left-handed) to 100 (right-handed)    *
#*********************************************************************
  0.0	= polbeam1 ! beam polarization for beam 1
  0.0	= polbeam2 ! beam polarization for beam 2
#*********************************************************************
# PDF CHOICE: this automatically fixes also alpha_s and its evol.    *
#*********************************************************************
  nn23lo1	= pdlabel ! PDF set                                     
  230000	= lhaid ! if pdlabel=lhapdf, this is the lhapdf number
#*********************************************************************
# Renormalization and factorization scales                           *
#*********************************************************************
  False	= fixed_ren_scale ! if .true. use fixed ren scale
  False	= fixed_fac_scale ! if .true. use fixed fac scale
  91.188	= scale ! fixed ren scale
  91.188	= dsqrt_q2fact1 ! fixed fact scale for pdf1
  91.188	= dsqrt_q2fact2 ! fixed fact scale for pdf2
  -1	= dynamical_scale_choice ! Choose one of the preselected dynamical choices
  1.0	= scalefact ! scale factor for event-by-event scales
#*********************************************************************
# Type and output format
#*********************************************************************
  False	= gridpack !True = setting up the grid pack
  -1.0	= time_of_flight ! threshold (in mm) below which the invariant livetime is not written (-1 means not written)
  3.0	= lhe_version ! Change the way clustering information pass to shower.        
  True	= clusinfo ! include clustering tag in output
  average	= event_norm ! average/sum. Normalization of the weight in the LHEF

#*********************************************************************
# Matching parameter (MLM only)
#*********************************************************************
  0	= ickkw ! 0 no matching, 1 MLM
  1.0	= alpsfact ! scale factor for QCD emission vx
  False	= chcluster ! cluster only according to channel diag
  4	= asrwgtflavor ! highest quark flavor for a_s reweight
  False	= auto_ptj_mjj ! Automatic setting of ptj and mjj if xqcut >0
                                   ! (turn off for VBF and single top processes) 
  0.0	= xqcut ! minimum kt jet measure between partons
#*********************************************************************
#
#*********************************************************************
# handling of the helicities:
#  0: sum over all helicities
#  1: importance sampling over helicities
#*********************************************************************
  0	= nhel ! using helicities importance sampling or not.
#*********************************************************************
# Generation bias, check the wiki page below for more information:   *
#  'cp3.irmp.ucl.ac.be/projects/madgraph/wiki/LOEventGenerationBias' *
#*********************************************************************
  None	= bias_module ! Bias type of bias, [None, ptj_bias, -custom_folder-]
  {}	= bias_parameters ! Specifies the parameters of the module.
#
#*******************************                                                 
# Parton level cuts definition *
#*******************************                                     
#                                                                    
#
#*********************************************************************
# BW cutoff (M+/-bwcutoff*Gamma) ! Define on/off-shell for "$" and decay  
#*********************************************************************
  15.0	= bwcutoff ! (M+/-bwcutoff*Gamma)
#*********************************************************************
# Apply pt/E/eta/dr/mij/kt_durham cuts on decay products or not
# (note that etmiss/ptll/ptheavy/ht/sorted cuts always apply)
#*********************************************************************
  False	= cut_decays ! Cut decay products 
#*********************************************************************
# Standard Cuts                                                      *
#*********************************************************************
# Minimum and maximum pt's (for max, -1 means no cut)                *
#*********************************************************************
  -1.0	= ptj ! minimum pt for the jets 
  0.0	= ptb ! minimum pt for the b 
  -1.0	= pta ! minimum pt for the photons 
  -1.0	= ptl ! minimum pt for the charged leptons 
  0.0	= misset ! minimum missing Et (sum of neutrino's momenta)
  -1.0	= ptjmax ! maximum pt for the jets
  -1.0	= ptbmax ! maximum pt for the b
  -1.0	= ptamax ! maximum pt for the photons
  -1.0	= ptlmax ! maximum pt for the charged leptons
  -1.0	= missetmax ! maximum missing Et (sum of neutrino's momenta)
  {}	= pt_min_pdg ! pt cut for other particles (use pdg code). Applied on particle and anti-particle
  {}	= pt_max_pdg ! pt cut for other particles (syntax e.g. {6: 100, 25: 50}) 
#*********************************************************************
# Minimum and maximum E's (in the center of mass frame)              *
#*********************************************************************
  0.0	= ej ! minimum E for the jets 
  0.0	= eb ! minimum E for the b 
  0.0	= ea ! minimum E for the photons 
  0.0	= el ! minimum E for the charged leptons 
  -1.0	= ejmax ! maximum E for the jets
  -1.0	= ebmax ! maximum E for the b
  -1.0	= eamax ! maximum E for the photons
  -1.0	= elmax ! maximum E for the charged leptons
  {}	= e_min_pdg ! E cut for other particles (use pdg code). Applied on particle and anti-particle
  {}	= e_max_pdg ! E cut for other particles (syntax e.g. {6: 100, 25: 50}) 
#*********************************************************************
# Maximum and minimum absolute rapidity (for max, -1 means no cut)   *
#*********************************************************************
  -1.0	= etaj ! max rap for the jets 
  -1.0	= etab ! max rap for the b
  -1.0	= etaa ! max rap for the photons 
  -1.0	= etal ! max rap for the charged leptons 
  0.0	= etajmin ! min rap for the jets
  0.0	= etabmin ! min rap for the b
  0.0	= etaamin ! min rap for the photons
  0.0	= etalmin ! main rap for the charged leptons
  {}	= eta_min_pdg ! rap cut for other particles (use pdg code). Applied on particle and anti-particle
  {}	= eta_max_pdg ! rap cut for other particles (syntax e.g. {6: 2.5, 23: 5})
#*********************************************************************
# Minimum and maximum DeltaR distance                                *
#*********************************************************************
  -1.0	= drjj ! min distance between jets 
  0.0	= drbb ! min distance between b's 
  -1.0	= drll ! min distance between leptons 
  -1.0	= draa ! min distance between gammas 
  0.0	= drbj ! min distance between b and jet 
  -1.0	= draj ! min distance between gamma and jet 
  -1.0	= drjl ! min distance between jet and lepton 
  0.0	= drab ! min distance between gamma and b 
  0.0	= drbl ! min distance between b and lepton 
  -1.0	= dral ! min distance between gamma and lepton 
  -1.0	= drjjmax ! max distance between jets
  -1.0	= drbbmax ! max distance between b's
  -1.0	= drllmax ! max distance between leptons
  -1.0	= draamax ! max distance between gammas
  -1.0	= drbjmax ! max distance between b and jet
  -1.0	= drajmax ! max distance between gamma and jet
  -1.0	= drjlmax ! max distance between jet and lepton
  -1.0	= drabmax ! max distance between gamma and b
  -1.0	= drblmax ! max distance between b and lepton
  -1.0	= dralmax ! maxdistance between gamma and lepton
#*********************************************************************
# Minimum and maximum invariant mass for pairs                       *
# WARNING: for four lepton final state mmll cut require to have      *
#          different lepton masses for each flavor!                  *           
#*********************************************************************
  0.0	= mmjj ! min invariant mass of a jet pair 
  0.0	= mmbb ! min invariant mass of a b pair 
  0.0	= mmaa ! min invariant mass of gamma gamma pair
  0.0	= mmll ! min invariant mass of l+l- (same flavour) lepton pair
  -1.0	= mmjjmax ! max invariant mass of a jet pair
  -1.0	= mmbbmax ! max invariant mass of a b pair
  -1.0	= mmaamax ! max invariant mass of gamma gamma pair
  -1.0	= mmllmax ! max invariant mass of l+l- (same flavour) lepton pair
  {}	= mxx_min_pdg ! min invariant mass of a pair of particles X/X~ (e.g. {6:250})
  {'default': False}	= mxx_only_part_antipart ! if True the invariant mass is applied only 
                       ! to pairs of particle/antiparticle and not to pairs of the same pdg codes.  
#*********************************************************************
# Minimum and maximum invariant mass for all letpons                 *
#*********************************************************************
  0.0	= mmnl ! min invariant mass for all letpons (l+- and vl) 
  -1.0	= mmnlmax ! max invariant mass for all letpons (l+- and vl) 
#*********************************************************************
# Minimum and maximum pt for 4-momenta sum of leptons                *
#*********************************************************************
  0.0	= ptllmin ! Minimum pt for 4-momenta sum of leptons(l and vl)
  -1.0	= ptllmax ! Maximum pt for 4-momenta sum of leptons(l and vl)
#*********************************************************************
# Inclusive cuts                                                     *
#*********************************************************************
  0.0	= ptheavy ! minimum pt for at least one heavy final state
  0.0	= xptj ! minimum pt for at least one jet  
  0.0	= xptb ! minimum pt for at least one b 
  0.0	= xpta ! minimum pt for at least one photon 
  0.0	= xptl ! minimum pt for at least one charged lepton 
#*********************************************************************
# Control the pt's of the jets sorted by pt                          *
#*********************************************************************
  0.0	= ptj1min ! minimum pt for the leading jet in pt
  0.0	= ptj2min ! minimum pt for the second jet in pt
  0.0	= ptj3min ! minimum pt for the third jet in pt
  0.0	= ptj4min ! minimum pt for the fourth jet in pt
  -1.0	= ptj1max ! maximum pt for the leading jet in pt 
  -1.0	= ptj2max ! maximum pt for the second jet in pt
  -1.0	= ptj3max ! maximum pt for the third jet in pt
  -1.0	= ptj4max ! maximum pt for the fourth jet in pt
  0	= cutuse ! reject event if fails any (0) / all (1) jet pt cuts
#*********************************************************************
# Control the pt's of leptons sorted by pt                           *
#*********************************************************************
  0.0	= ptl1min ! minimum pt for the leading lepton in pt
  0.0	= ptl2min ! minimum pt for the second lepton in pt
  0.0	= ptl3min ! minimum pt for the third lepton in pt
  0.0	= ptl4min ! minimum pt for the fourth lepton in pt
  -1.0	= ptl1max ! maximum pt for the leading lepton in pt 
  -1.0	= ptl2max ! maximum pt for the second lepton in pt
  -1.0	= ptl3max ! maximum pt for the third lepton in pt
  -1.0	= ptl4max ! maximum pt for the fourth lepton in pt
#*********************************************************************
# Control the Ht(k)=Sum of k leading jets                            *
#*********************************************************************
  0.0	= htjmin ! minimum jet HT=Sum(jet pt)
  -1.0	= htjmax ! maximum jet HT=Sum(jet pt)
  0.0	= ihtmin !inclusive Ht for all partons (including b)
  -1.0	= ihtmax !inclusive Ht for all partons (including b)
  0.0	= ht2min ! minimum Ht for the two leading jets
  0.0	= ht3min ! minimum Ht for the three leading jets
  0.0	= ht4min ! minimum Ht for the four leading jets
  -1.0	= ht2max ! maximum Ht for the two leading jets
  -1.0	= ht3max ! maximum Ht for the three leading jets
  -1.0	= ht4max ! maximum Ht for the four leading jets
#***********************************************************************
# Photon-isolation cuts, according to hep-ph/9801442                   *
# When ptgmin=0, all the other parameters are ignored                  *
# When ptgmin>0, pta and draj are not going to be used                 *
#***********************************************************************
  0.0	= ptgmin ! Min photon transverse momentum
  0.4	= r0gamma ! Radius of isolation code
  1.0	= xn ! n parameter of eq.(3.4) in hep-ph/9801442
  1.0	= epsgamma ! epsilon_gamma parameter of eq.(3.4) in hep-ph/9801442
  True	= isoem ! isolate photons from EM energy (photons and leptons)
#*********************************************************************
# WBF cuts                                                           *
#*********************************************************************
  0.0	= xetamin ! minimum rapidity for two jets in the WBF case  
  0.0	= deltaeta ! minimum rapidity for two jets in the WBF case 
#***********************************************************************
# Turn on either the ktdurham or ptlund cut to activate                *
# CKKW(L) merging with Pythia8 [arXiv:1410.3012, arXiv:1109.4829]      *
#***********************************************************************
  -1.0	= ktdurham 
  0.4	= dparameter 
  -1.0	= ptlund 
  1, 2, 3, 4, 5, 6, 21	= pdgs_for_merging_cut ! PDGs for two cuts above   
#*********************************************************************
# maximal pdg code for quark to be considered as a light jet         *
# (otherwise b cuts are applied)                                     *
#*********************************************************************
  4	= maxjetflavor ! Maximum jet pdg code
#*********************************************************************
#
#*********************************************************************
# Store info for systematics studies                                 *
# WARNING: Do not use for interference type of computation           *
#*********************************************************************
  True	= use_syst ! Enable systematics studies
#
#**************************************
# Parameter of the systematics study
#  will be used by SysCalc (if installed)
#**************************************                                  
#
  0.5 1 2	= sys_scalefact # factorization/renormalization scale factor
  None	= sys_alpsfact # \alpha_s emission scale factors
  auto	= sys_matchscale # variation of merging scale
# PDF sets and number of members (0 or none for all members).
  NNPDF23_lo_as_0130_qed	= sys_pdf # list of pdf sets
# MSTW2008nlo68cl.LHgrid 1  = sys_pdf
#
]]>
</MGRunCard>
<slha>
######################################################################
## PARAM_CARD AUTOMATICALY GENERATED BY MG5                       ####
######################################################################
###################################
## INFORMATION FOR FRBLOCK
###################################
BLOCK FRBLOCK # 
      1 3.000000e-03 # kq
      2 1.000000e-01 # lamf
###################################
## INFORMATION FOR FRBLOCK6
###################################
BLOCK FRBLOCK6 # 
      1 1 0.000000e+00 # yf1x1
      1 2 3.000000e-04 # yf1x2
      1 3 0.000000e+00 # yf1x3
      2 1 0.000000e+00 # yf2x1
      2 2 0.000000e+00 # yf2x2
      2 3 0.000000e+00 # yf2x3
      3 1 0.000000e+00 # yf3x1
      3 2 0.000000e+00 # yf3x2
      3 3 0.000000e+00 # yf3x3
###################################
## INFORMATION FOR MASS
###################################
BLOCK MASS # 
      5 4.700000e+00 # mb
      6 1.720000e+02 # mt
      15 1.777000e+00 # mta
      23 9.118760e+01 # mz
      25 1.250000e+02 # mh
      9000005 1.200000e+02 # mp
      9000006 4.000000e+01 # mfi__2
      1 0.000000e+00 # d : 0.0
      2 0.000000e+00 # u : 0.0
      3 0.000000e+00 # s : 0.0
      4 0.000000e+00 # c : 0.0
      11 0.000000e+00 # e- : 0.0
      12 0.000000e+00 # ve : 0.0
      13 0.000000e+00 # mu- : 0.0
      14 0.000000e+00 # vm : 0.0
      16 0.000000e+00 # vt : 0.0
      21 0.000000e+00 # g : 0.0
      22 0.000000e+00 # a : 0.0
      24 7.982436e+01 # w+ : cmath.sqrt(mz__exp__2/2. + cmath.sqrt(mz__exp__4/4. - (aew*cmath.pi*mz__exp__2)/(gf*sqrt__2)))
###################################
## INFORMATION FOR SMINPUTS
###################################
BLOCK SMINPUTS # 
      1 1.279000e+02 # aewm1
      2 1.166370e-05 # gf
      3 1.184000e-01 # as
###################################
## INFORMATION FOR YUKAWA
###################################
BLOCK YUKAWA # 
      5 4.700000e+00 # ymb
      6 1.720000e+02 # ymt
      15 1.777000e+00 # ymtau
###################################
## INFORMATION FOR DECAY
###################################
DECAY 6 1.508336e+00 # wt
DECAY 23 2.495200e+00 # wz
DECAY 24 2.085000e+00 # ww
DECAY 25 5.895690e-03 # wh
DECAY 9000005 5.753088e-03 # wh1
DECAY 9000006 1.432394e-07 # wfi
DECAY 1 0.000000e+00 # d : 0.0
DECAY 2 0.000000e+00 # u : 0.0
DECAY 3 0.000000e+00 # s : 0.0
DECAY 4 0.000000e+00 # c : 0.0
DECAY 5 0.000000e+00 # b : 0.0
DECAY 11 0.000000e+00 # e- : 0.0
DECAY 12 0.000000e+00 # ve : 0.0
DECAY 13 0.000000e+00 # mu- : 0.0
DECAY 14 0.000000e+00 # vm : 0.0
DECAY 15 0.000000e+00 # ta- : 0.0
DECAY 16 0.000000e+00 # vt : 0.0
DECAY 21 0.000000e+00 # g : 0.0
DECAY 22 0.000000e+00 # a : 0.0
###################################
## INFORMATION FOR QNUMBERS 9000005
###################################
BLOCK QNUMBERS 9000005 #  h1
      1 0 # 3 times electric charge
      2 1 # number of spin states (2s+1)
      3 1 # colour rep (1: singlet, 3: triplet, 8: octet)
      4 0 # particle/antiparticle distinction (0=own anti)
###################################
## INFORMATION FOR QNUMBERS 9000006
###################################
BLOCK QNUMBERS 9000006 #  fi
      1 0 # 3 times electric charge
      2 1 # number of spin states (2s+1)
      3 1 # colour rep (1: singlet, 3: triplet, 8: octet)
      4 0 # particle/antiparticle distinction (0=own anti)
</slha>
<MGGenerationInfo>
#  Number of Events        :       500
#  Integrated weight (pb)  :       9556300.0
</MGGenerationInfo>
</header>
<init>
2212 2212 4.000000e+03 4.000000e+03 0 0 247000 247000 -4 1
9.556300e+06 1.997500e+04 9.556300e+06 1
<generator name='MadGraph5_aMC@NLO' version='2.6.1'>please cite 1405.0301 </generator>
</init>
<event>
 9      1 +9.5563000e+06 1.25007700e+02 7.81860800e-03 1.23505700e-01
       21 -1    0    0  502  501 +0.0000000000e+00 +0.0000000000e+00 +2.9260021785e+01 2.9260021785e+01 0.0000000000e+00 0.0000e+00 -1.0000e+00
       21 -1    0    0  501  502 -0.0000000000e+00 -0.0000000000e+00 -1.3351781921e+02 1.3351781921e+02 0.0000000000e+00 0.0000e+00 -1.0000e+00
       25  2    1    2    0    0 +0.0000000000e+00 +0.0000000000e+00 -1.0425779743e+02 1.6277784099e+02 1.2500774854e+02 0.0000e+00 0.0000e+00
  9000006  2    3    3    0    0 -4.5653733839e+01 +1.4894294452e+01 -5.1094636970e+01 8.0726484785e+01 3.9999999974e+01 0.0000e+00 0.0000e+00
  9000006  2    3    3    0    0 +4.5653733839e+01 -1.4894294452e+01 -5.3163160456e+01 8.2051356210e+01 4.0000000070e+01 0.0000e+00 0.0000e+00
      -11  1    4    4    0    0 -4.1607243900e+01 +4.6725814844e+00 -5.4944019118e+01 6.9078513299e+01 0.0000000000e+00 0.0000e+00 1.0000e+00
       13  1    4    4    0    0 -4.0464899390e+00 +1.0221712967e+01 +3.8493821485e+00 1.1647971486e+01 0.0000000000e+00 0.0000e+00 1.0000e+00
      -11  1    5    5    0    0 +6.1249739726e+00 +8.4431600107e+00 +1.6446658170e+00 1.0559696150e+01 0.0000000000e+00 0.0000e+00 1.0000e+00
       13  1    5    5    0    0 +3.9528759867e+01 -2.3337454462e+01 -5.4807826273e+01 7.1491660060e+01 0.0000000000e+00 0.0000e+00 1.0000e+00
<mgrwt>
<rscale>  0 0.12500775E+03</rscale>
<asrwt>0</asrwt>
<pdfrwt beam="1">  1       21 0.73150055E-02 0.12500775E+03</pdfrwt>
<pdfrwt beam="2">  1       21 0.33379455E-01 0.12500775E+03</pdfrwt>
<totfact> 0.12104984E+06</totfact>
</mgrwt>
</event>
<event>
 9      1 +9.5563000e+06 1.24984300e+02 7.81860800e-03 1.23509400e-01
       21 -1    0    0  502  501 +0.0000000000e+00 +0.0000000000e+00 +2.4057021047e+02 2.4057021047e+02 0.0000000000e+00 0.0000e+00 -1.0000e+00
       21 -1    0    0  501  502 -0.0000000000e+00 -0.0000000000e+00 -1.6233397362e+01 1.6233397362e+01 0.0000000000e+00 0.0000e+00 -1.0000e+00
       25  2    1    2    0    0 +1.4210854715e-14 -8.8817841970e-16 +2.2433681311e+02 2.5680360783e+02 1.2498434814e+02 0.0000e+00 0.0000e+00
  9000006  2    3    3    0    0 -4.7183798536e+01 -6.9255084905e+00 +1.2360810407e+02 1.3839521992e+02 3.9999999924e+01 0.0000e+00 0.0000e+00
  9000006  2    3    3    0    0 +4.7183798536e+01 +6.9255084905e+00 +1.0072870904e+02 1.1840838791e+02 3.9999999881e+01 0.0000e+00 0.0000e+00
      -11  1    5    5    0    0 +1.2040177116e+01 -2.4965905449e+00 +6.9138442390e+01 7.0223379621e+01 0.0000000000e+00 0.0000e+00 1.0000e+00
       13  1    4    4    0    0 +7.2092489249e+00 -2.6167662445e+00 +1.6095189653e+01 1.7829073605e+01 0.0000000000e+00 0.0000e+00 1.0000e+00
      -11  1    4    4    0    0 -5.4393047461e+01 -4.3087422459e+00 +1.0751291442e+02 1.2056614632e+02 0.0000000000e+00 0.0000e+00 1.0000e+00
       13  1    5    5    0    0 +3.5143621421e+01 +9.4220990354e+00 +3.1590266651e+01 4.8185008290e+01 0.0000000000e+00 0.0000e+00 1.0000e+00
<mgrwt>
<rscale>  0 0.12498435E+03</rscale>
<asrwt>0</asrwt>
<pdfrwt beam="1">  1       21 0.60142541E-01 0.12498435E+03</pdfrwt>
<pdfrwt beam="2">  1       21 0.40583501E-02 0.12498435E+03</pdfrwt>
<totfact> 0.98858798E+05</totfact>
</mgrwt>
</event>
<event>
 9      1 +9.5563000e+06 1.25003800e+02 7.81860800e-03 1.23506300e-01
       21 -1    0    0  502  501 +0.0000000000e+00 +0.0000000000e+00 +3.4194064029e+02 3.4194064029e+02 0.0000000000e+00 0.0000e+00 1.0000e+00
       21 -1    0    0  501  502 -0.0000000000e+00 -0.0000000000e+00 -1.1424466114e+01 1.1424466114e+01 0.0000000000e+00 0.0000e+00 1.0000e+00
       25  2    1    2    0    0 +0.0000000000e+00 +0.0000000000e+00 +3.3051617418e+02 3.5336510641e+02 1.2500382807e+02 0.0000e+00 0.0000e+00
  9000006  2    3    3    0    0 -3.7311087881e+01 +3.7405462026e+00 +8.0435143393e+01 9.7344343782e+01 4.0000000111e+01 0.0000e+00 0.0000e+00
  9000006  2    3    3    0    0 +3.7311087881e+01 -3.7405462026e+00 +2.5008103079e+02 2.5602076263e+02 3.9999999645e+01 0.0000e+00 0.0000e+00
      -11  1    4    4    0    0 -3.9983752708e+01 +1.5169252587e+01 +6.7213553106e+01 7.9664725103e+01 0.0000000000e+00 0.0000e+00 1.0000e+00
       13  1    4    4    0    0 +2.6726648267e+00 -1.1428706384e+01 +1.3221590287e+01 1.7679618679e+01 0.0000000000e+00 0.0000e+00 1.0000e+00
      -11  1    5    5    0    0 +1.9791738107e+01 -2.1305788765e+01 +1.1109248633e+02 1.1483549126e+02 0.0000000000e+00 0.0000e+00 1.0000e+00
       13  1    5    5    0    0 +1.7519349774e+01 +1.7565242562e+01 +1.3898854445e+02 1.4118527137e+02 0.0000000000e+00 0.0000e+00 1.0000e+00
<mgrwt>
<rscale>  0 0.12500383E+03</rscale>
<asrwt>0</asrwt>
<pdfrwt beam="1">  1       21 0.85485126E-01 0.12500383E+03</pdfrwt>
<pdfrwt beam="2">  1       21 0.28561177E-02 0.12500383E+03</pdfrwt>
<totfact> 0.81690324E+05</totfact>
</mgrwt>
</event>
<event>
 9      1 +9.5563000e+06 1.24998700e+02 7.81860800e-03 1.23507100e-01
       21 -1    0    0  502  501 +0.0000000000e+00 +0.0000000000e+00 +1.8372102126e+01 1.8372102126e+01 0.0000000000e+00 0.0000e+00 -1.0000e+00
       21 -1    0    0  501  502 -0.0000000000e+00 -0.0000000000e+00 -2.1261402600e+02 2.1261402600e+02 0.0000000000e+00 0.0000e+00 -1.0000e+00
       25  2    1    2    0    0 -3.5527136788e-15 +0.0000000000e+00 -1.9424192388e+02 2.3098612813e+02 1.2499866558e+02 0.0000e+00 0.0000e+00
  9000006  2    3    3    0    0 +1.8017448482e+01 -3.6974018275e+01 -1.4292749054e+02 1.5401290211e+02 3.9999999852e+01 0.0000e+00 0.0000e+00
  9000006  2    3    3    0    0 -1.8017448482e+01 +3.6974018275e+01 -5.1314433339e+01 7.6973226017e+01 3.9999999717e+01 0.0000e+00 0.0000e+00
      -11  1    4    4    0    0 +5.1757420092e+00 +8.9520848853e-01 -7.5042503680e+01 7.5226106254e+01 0.0000000000e+00 0.0000e+00 1.0000e+00
       13  1    4    4    0    0 +1.2841706473e+01 -3.7869226764e+01 -6.7884986858e+01 7.8786795858e+01 0.0000000000e+00 0.0000e+00 1.0000e+00
      -11  1    5    5    0    0 -9.1916128074e+00 +3.3198414370e+01 -1.1959379673e+01 3.6464328115e+01 0.0000000000e+00 0.0000e+00 1.0000e+00
       13  1    5    5    0    0 -8.8258356746e+00 +3.7756039047e+00 -3.9355053666e+01 4.0508897902e+01 0.0000000000e+00 0.0000e+00 1.0000e+00
<mgrwt>
<rscale>  0 0.12499867E+03</rscale>
<asrwt>0</asrwt>
<pdfrwt beam="1">  1       21 0.45930256E-02 0.12499867E+03</pdfrwt>
<pdfrwt beam="2">  1       21 0.53153506E-01 0.12499867E+03</pdfrwt>
<totfact> 0.10427541E+06</totfact>
</mgrwt>
</event>
<event>
 9      1 +9.5563000e+06 1.24998000e+02 7.81860800e-03 1.23507200e-01
       21 -1    0    0  502  501 +0.0000000000e+00 +0.0000000000e+00 +2.0371604512e+02 2.0371604512e+02 0.0000000000e+00 0.0000e+00 1.0000e+00
       21 -1    0    0  501  502 -0.0000000000e+00 -0.0000000000e+00 -1.9174365004e+01 1.9174365004e+01 0.0000000000e+00 0.0000e+00 1.0000e+00
       25  2    1    2    0    0 -3.5527136788e-15 +0.0000000000e+00 +1.8454168012e+02 2.2289041012e+02 1.2499801288e+02 0.0000e+00 0.0000e+00
  9000006  2    3    3    0    0 +2.1240492935e+01 -1.4481426922e+01 +1.6459858969e+02 1.7132882407e+02 3.9999999549e+01 0.0000e+00 0.0000e+00
  9000006  2    3    3    0    0 -2.1240492935e+01 +1.4481426922e+01 +1.9943090430e+01 5.1561586056e+01 4.0000000435e+01 0.0000e+00 0.0000e+00
      -11  1    5    5    0    0 -6.0470300646e+00 -1.1756924012e+01 -2.9787950998e+00 1.3552308109e+01 0.0000000000e+00 0.0000e+00 1.0000e+00
       13  1    4    4    0    0 +1.4117877851e+01 -1.6186248656e+01 +3.2068958396e+01 3.8596984509e+01 0.0000000000e+00 0.0000e+00 1.0000e+00
      -11  1    4    4    0    0 +7.1226150848e+00 +1.7048217341e+00 +1.3252963129e+02 1.3273183956e+02 0.0000000000e+00 0.0000e+00 1.0000e+00
       13  1    5    5    0    0 -1.5193462871e+01 +2.6238350935e+01 +2.2921885530e+01 3.8009277947e+01 0.0000000000e+00 0.0000e+00 1.0000e+00
<mgrwt>
<rscale>  0 0.12499801E+03</rscale>
<asrwt>0</asrwt>
<pdfrwt beam="1">  1       21 0.50929005E-01 0.12499801E+03</pdfrwt>
<pdfrwt beam="2">  1       21 0.47935919E-02 0.12499801E+03</pdfrwt>
<totfact> 0.10607785E+06</totfact>
</mgrwt>
</event>
<event>
 9      1 +9.5563000e+06 1.25011100e+02 7.81860800e-03 1.23505200e-01
       21 -1    0    0  502  501 +0.0000000000e+00 +0.0000000000e+00 +4.3884737560e+01 4.3884737560e+01 0.0000000000e+00 0.0000e+00 1.0000e+00
       21 -1    0    0  501  502 -0.0000000000e+00 -0.0000000000e+00 -8.9027330017e+01 8.9027330017e+01 0.0000000000e+00 0.0000e+00 1.0000e+00
       25  2    1    2    0    0 +7.1054273576e-15 -1.7763568394e-15 -4.5142592457e+01 1.3291206758e+02 1.2501105573e+02 0.0000e+00 0.0000e+00
  9000006  2    3    3    0    0 -4.7359216137e+01 -7.8175091389e+00 -2.0750700411e+01 6.5837681992e+01 4.0000000004e+01 0.0000e+00 0.0000e+00
  9000006  2    3    3    0    0 +4.7359216137e+01 +7.8175091389e+00 -2.4391892046e+01 6.7074385585e+01 4.0000000023e+01 0.0000e+00 0.0000e+00
      -11  1    5    5    0    0 +5.2145366546e+01 -4.7441739665e-01 -1.6586655304e+01 5.4721855398e+01 0.0000000000e+00 0.0000e+00 1.0000e+00
       13  1    4    4    0    0 -3.8908367164e+01 -2.1944047743e+01 -8.8835560098e+00 4.5544701494e+01 0.0000000000e+00 0.0000e+00 1.0000e+00
      -11  1    4    4    0    0 -8.4508489723e+00 +1.4126538604e+01 -1.1867144401e+01 2.0292980499e+01 0.0000000000e+00 0.0000e+00 1.0000e+00
       13  1    5    5    0    0 -4.7861504092e+00 +8.2919265356e+00 -7.8052367428e+00 1.2352530187e+01 0.0000000000e+00 0.0000e+00 1.0000e+00
<mgrwt>
<rscale>  0 0.12501106E+03</rscale>
<asrwt>0</asrwt>
<pdfrwt beam="1">  1       21 0.10971185E-01 0.12501106E+03</pdfrwt>
<pdfrwt beam="2">  1       21 0.22256832E-01 0.12501106E+03</pdfrwt>
<totfact> 0.12975253E+06</totfact>
</mgrwt>
</event>
<event>
 9      1 +9.5563000e+06 1.25016600e+02 7.81860800e-03 1.23504300e-01
       21 -1    0    0  502  501 +0.0000000000e+00 +0.0000000000e+00 +6.4011874810e+02 6.4011874810e+02 0.0000000000e+00 0.0000e+00 1.0000e+00
       21 -1    0    0  501  502 -0.0000000000e+00 -0.0000000000e+00 -6.1040066893e+00 6.1040066893e+00 0.0000000000e+00 0.0000e+00 1.0000e+00
       25  2    1    2    0    0 +0.0000000000e+00 +0.0000000000e+00 +6.3401474141e+02 6.4622275479e+02 1.2501662482e+02 0.0000e+00 0.0000e+00
  9000006  2    3    3    0    0 -1.4854673762e+01 +2.0259076010e+01 +5.2863730041e+02 5.3074333426e+02 3.9999999847e+01 0.0000e+00 0.0000e+00
  9000006  2    3    3    0    0 +1.4854673762e+01 -2.0259076010e+01 +1.0537744100e+02 1.1547942052e+02 3.9999999995e+01 0.0000e+00 0.0000e+00
      -11  1    4    4    0    0 -2.3221066897e+01 +2.1021167586e+01 +2.4664895975e+02 2.4862987909e+02 0.0000000000e+00 0.0000e+00 1.0000e+00
       13  1    4    4    0    0 +8.3663931350e+00 -7.6209157585e-01 +2.8198834066e+02 2.8211345517e+02 0.0000000000e+00 0.0000e+00 1.0000e+00
      -11  1    5    5    0    0 +7.9960085681e-01 -2.1786594817e+01 +2.2221500803e+01 3.1130213189e+01 0.0000000000e+00 0.0000e+00 1.0000e+00
       13  1    5    5    0    0 +1.4055072905e+01 +1.5275188066e+00 +8.3155940196e+01 8.4349207335e+01 0.0000000000e+00 0.0000e+00 1.0000e+00
<mgrwt>
<rscale>  0 0.12501662E+03</rscale>
<asrwt>0</asrwt>
<pdfrwt beam="1">  1       21 0.16002946E+00 0.12501662E+03</pdfrwt>
<pdfrwt beam="2">  1       21 0.15260038E-02 0.12501662E+03</pdfrwt>
<totfact> 0.48961055E+05</totfact>
</mgrwt>
</event>
<event>
 9      1 +9.5563000e+06 1.25004000e+02 7.81860800e-03 1.23506300e-01
       21 -1    0    0  502  501 +0.0000000000e+00 +0.0000000000e+00 +5.2039525759e+01 5.2039525759e+01 0.0000000000e+00 0.0000e+00 -1.0000e+00
       21 -1    0    0  501  502 -0.0000000000e+00 -0.0000000000e+00 -7.5067963283e+01 7.5067963283e+01 0.0000000000e+00 0.0000e+00 -1.0000e+00
       25  2    1    2    0    0 +0.0000000000e+00 -7.1054273576e-15 -2.3028437524e+01 1.2710748904e+02 1.2500401928e+02 0.0000e+00 0.0000e+00
  9000006  2    3    3    0    0 -2.1718167237e+01 -2.7555014807e+01 +2.1833118508e+01 5.7512109675e+01 4.0000000830e+01 0.0000e+00 0.0000e+00
  9000006  2    3    3    0    0 +2.1718167237e+01 +2.7555014807e+01 -4.4861556031e+01 6.9595379367e+01 3.9999999882e+01 0.0000e+00 0.0000e+00
      -11  1    5    5    0    0 +2.2170152516e+01 +1.4467449821e+01 -4.1084594476e+00 2.6789964650e+01 0.0000000000e+00 0.0000e+00 1.0000e+00
       13  1    4    4    0    0 -9.0485297699e+00 +9.2558287323e+00 +1.3758115826e-01 1.2944697180e+01 0.0000000000e+00 0.0000e+00 1.0000e+00
      -11  1    4    4    0    0 -1.2669637467e+01 -3.6810843539e+01 +2.1695537349e+01 4.4567412495e+01 0.0000000000e+00 0.0000e+00 1.0000e+00
       13  1    5    5    0    0 -4.5198527899e-01 +1.3087564986e+01 -4.0753096584e+01 4.2805414717e+01 0.0000000000e+00 0.0000e+00 1.0000e+00
<mgrwt>
<rscale>  0 0.12500402E+03</rscale>
<asrwt>0</asrwt>
<pdfrwt beam="1">  1       21 0.13009882E-01 0.12500402E+03</pdfrwt>
<pdfrwt beam="2">  1       21 0.18766991E-01 0.12500402E+03</pdfrwt>
<totfact> 0.13159893E+06</totfact>
</mgrwt>
</event>
<event>
 9      1 +9.5563000e+06 1.25025000e+02 7.81860800e-03 1.23503000e-01
       21 -1    0    0  502  501 +0.0000000000e+00 +0.0000000000e+00 +9.5932389301e+02 9.5932389301e+02 0.0000000000e+00 0.0000e+00 -1.0000e+00
       21 -1    0    0  501  502 -0.0000000000e+00 -0.0000000000e+00 -4.0735055226e+00 4.0735055226e+00 0.0000000000e+00 0.0000e+00 -1.0000e+00
       25  2    1    2    0    0 +0.0000000000e+00 +0.0000000000e+00 +9.5525038749e+02 9.6339739854e+02 1.2502497632e+02 0.0000e+00 0.0000e+00
  9000006  2    3    3    0    0 -3.8465683618e+01 +4.0991590304e+00 +2.5812950748e+02 2.6405918759e+02 3.9999999998e+01 0.0000e+00 0.0000e+00
  9000006  2    3    3    0    0 +3.8465683618e+01 -4.0991590304e+00 +6.9712088001e+02 6.9933821094e+02 4.0000000201e+01 0.0000e+00 0.0000e+00
      -11  1    4    4    0    0 +2.1620635351e-01 +1.1339945820e+01 +2.2838024144e+01 2.5499342407e+01 0.0000000000e+00 0.0000e+00 1.0000e+00
       13  1    4    4    0    0 -3.8681889971e+01 -7.2407867895e+00 +2.3529148334e+02 2.3855984519e+02 0.0000000000e+00 0.0000e+00 1.0000e+00
      -11  1    5    5    0    0 +2.5534476015e+01 -1.2140599315e+01 +2.0047693695e+02 2.0246087491e+02 0.0000000000e+00 0.0000e+00 1.0000e+00
       13  1    5    5    0    0 +1.2931207602e+01 +8.0414402846e+00 +4.9664394306e+02 4.9687733604e+02 0.0000000000e+00 0.0000e+00 1.0000e+00
<mgrwt>
<rscale>  0 0.12502498E+03</rscale>
<asrwt>0</asrwt>
<pdfrwt beam="1">  1       21 0.23983020E+00 0.12502498E+03</pdfrwt>
<pdfrwt beam="2">  1       21 0.10183797E-02 0.12502498E+03</pdfrwt>
<totfact> 0.28979538E+05</totfact>
</mgrwt>
</event>
<event>
 9      1 +9.5563000e+06 1.25007500e+02 7.81860800e-03 1.23505800e-01
       21 -1    0    0  502  501 +0.0000000000e+00 +0.0000000000e+00 +1.4660024831e+01 1.4660024831e+01 0.0000000000e+00 0.0000e+00 -1.0000e+00
       21 -1    0    0  501  502 -0.0000000000e+00 -0.0000000000e+00 -2.6648791396e+02 2.6648791396e+02 0.0000000000e+00 0.0000e+00 -1.0000e+00
       25  2    1    2    0    0 +0.0000000000e+00 -8.8817841970e-16 -2.5182788913e+02 2.8114793879e+02 1.2500751075e+02 0.0000e+00 0.0000e+00
  9000006  2    3    3    0    0 +2.4076830506e+01 -6.7567096219e+00 -3.3692743918e+01 5.7970232718e+01 3.9999999957e+01 0.0000e+00 0.0000e+00
  9000006  2    3    3    0    0 -2.4076830506e+01 +6.7567096219e+00 -2.1813514521e+02 2.2317770607e+02 4.0000000243e+01 0.0000e+00 0.0000e+00
      -11  1    5    5    0    0 -1.5508629653e+01 -3.2508712626e-01 -2.0651535127e+02 2.0709711148e+02 0.0000000000e+00 0.0000e+00 1.0000e+00
       13  1    4    4    0    0 +6.1285030901e+00 -1.0772502202e+01 +6.3352070846e+00 1.3919058971e+01 0.0000000000e+00 0.0000e+00 1.0000e+00
      -11  1    4    4    0    0 +1.7948327416e+01 +4.0157925804e+00 -4.0027951002e+01 4.4051173747e+01 0.0000000000e+00 0.0000e+00 1.0000e+00
       13  1    5    5    0    0 -8.5682008534e+00 +7.0817967482e+00 -1.1619793940e+01 1.6080594587e+01 0.0000000000e+00 0.0000e+00 1.0000e+00
<mgrwt>
<rscale>  0 0.12500751E+03</rscale>
<asrwt>0</asrwt>
<pdfrwt beam="1">  1       21 0.36650063E-02 0.12500751E+03</pdfrwt>
<pdfrwt beam="2">  1       21 0.66621976E-01 0.12500751E+03</pdfrwt>
<totfact> 0.94024553E+05</totfact>
</mgrwt>
</event>
<event>
 9      1 +9.5563000e+06 1.25001400e+02 7.81860800e-03 1.23506700e-01
       21 -1    0    0  502  501 +0.0000000000e+00 +0.0000000000e+00 +6.5194704591e+01 6.5194704591e+01 0.0000000000e+00 0.0000e+00 1.0000e+00
       21 -1    0    0  501  502 -0.0000000000e+00 -0.0000000000e+00 -5.9918038046e+01 5.9918038046e+01 0.0000000000e+00 0.0000e+00 1.0000e+00
       25  2    1    2    0    0 +8.8817841970e-16 +3.5527136788e-15 +5.2766665441e+00 1.2511274264e+02 1.2500142063e+02 0.0000e+00 0.0000e+00
  9000006  2    3    3    0    0 +1.7781648657e-01 +2.6123927941e+01 -3.7694545752e+01 6.0855320279e+01 3.9999999963e+01 0.0000e+00 0.0000e+00
  9000006  2    3    3    0    0 -1.7781648657e-01 -2.6123927941e+01 +4.2971212296e+01 6.4257422358e+01 4.0000000151e+01 0.0000e+00 0.0000e+00
      -11  1    4    4    0    0 -1.5705410610e+01 +4.5285840867e+00 -2.3786679978e+00 1.6517447070e+01 0.0000000000e+00 0.0000e+00 1.0000e+00
       13  1    4    4    0    0 +1.5883227097e+01 +2.1595343855e+01 -3.5315877754e+01 4.4337873210e+01 0.0000000000e+00 0.0000e+00 1.0000e+00
      -11  1    5    5    0    0 +4.7291604893e+00 -3.5838145920e+01 +3.7462875131e+01 5.2059626151e+01 0.0000000000e+00 0.0000e+00 1.0000e+00
       13  1    5    5    0    0 -4.9069769758e+00 +9.7142179785e+00 +5.5083371653e+00 1.2197796207e+01 0.0000000000e+00 0.0000e+00 1.0000e+00
<mgrwt>
<rscale>  0 0.12500142E+03</rscale>
<asrwt>0</asrwt>
<pdfrwt beam="1">  1       21 0.16298676E-01 0.12500142E+03</pdfrwt>
<pdfrwt beam="2">  1       21 0.14979509E-01 0.12500142E+03</pdfrwt>
<totfact> 0.13222686E+06</totfact>
</mgrwt>
</event>
<event>
 9      1 +9.5563000e+06 1.24990600e+02 7.81860800e-03 1.23508400e-01
       21 -1    0    0  502  501 +0.0000000000e+00 +0.0000000000e+00 +1.4283348580e+02 1.4283348580e+02 0.0000000000e+00 0.0000e+00 1.0000e+00
       21 -1    0    0  501  502 -0.0000000000e+00 -0.0000000000e+00 -2.7344176612e+01 2.7344176612e+01 0.0000000000e+00 0.0000e+00 1.0000e+00
       25  2    1    2    0    0 +7.1054273576e-15 -7.1054273576e-15 +1.1548930919e+02 1.7017766241e+02 1.2499062464e+02 0.0000e+00 0.0000e+00
  9000006  2    3    3    0    0 +4.2220454953e+01 -1.9713275980e+01 +7.3533864655e+01 9.5804015193e+01 4.0000000122e+01 0.0000e+00 0.0000e+00
  9000006  2    3    3    0    0 -4.2220454953e+01 +1.9713275980e+01 +4.1955444534e+01 7.4373647219e+01 4.0000000105e+01 0.0000e+00 0.0000e+00
      -11  1    4    4    0    0 +1.2286146356e+01 +1.2177674851e+01 +2.5786187356e+01 3.1051129053e+01 0.0000000000e+00 0.0000e+00 1.0000e+00
       13  1    4    4    0    0 +2.9934308597e+01 -3.1890950831e+01 +4.7747677299e+01 6.4752886140e+01 0.0000000000e+00 0.0000e+00 1.0000e+00
      -11  1    5    5    0    0 -4.9216348781e+01 +1.1681707230e+01 +3.2448535988e+01 6.0096744994e+01 0.0000000000e+00 0.0000e+00 1.0000e+00
       13  1    5    5    0    0 +6.9958938284e+00 +8.0315687496e+00 +9.5069085460e+00 1.4276902225e+01 0.0000000000e+00 0.0000e+00 1.0000e+00
<mgrwt>
<rscale>  0 0.12499062E+03</rscale>
<asrwt>0</asrwt>
<pdfrwt beam="1">  1       21 0.35708369E-01 0.12499062E+03</pdfrwt>
<pdfrwt beam="2">  1       21 0.68360445E-02 0.12499062E+03</pdfrwt>
<totfact> 0.11908873E+06</totfact>
</mgrwt>
</event>
<event>
 9      1 +9.5563000e+06 1.25000700e+02 7.81860800e-03 1.23506800e-01
       21 -1    0    0  502  501 +0.0000000000e+00 +0.0000000000e+00 +9.6693942861e+01 9.6693942861e+01 0.0000000000e+00 0.0000e+00 1.0000e+00
       21 -1    0    0  501  502 -0.0000000000e+00 -0.0000000000e+00 -4.0398512776e+01 4.0398512776e+01 0.0000000000e+00 0.0000e+00 1.0000e+00
       25  2    1    2    0    0 +0.0000000000e+00 +0.0000000000e+00 +5.6295430085e+01 1.3709245564e+02 1.2500066377e+02 0.0000e+00 0.0000e+00
  9000006  2    3    3    0    0 -1.5361190884e+01 -4.3939736168e+01 +1.5188381889e+01 6.3224627642e+01 3.9999999952e+01 0.0000e+00 0.0000e+00
  9000006  2    3    3    0    0 +1.5361190884e+01 +4.3939736168e+01 +4.1107048196e+01 7.3867827995e+01 4.0000000019e+01 0.0000e+00 0.0000e+00
      -11  1    5    5    0    0 +2.8522367219e+01 +3.1689936822e+01 +2.3409419344e+01 4.8639268514e+01 0.0000000000e+00 0.0000e+00 1.0000e+00
       13  1    4    4    0    0 -4.0588966168e+00 -8.4934385225e+00 -1.3350046854e+01 1.6335142812e+01 0.0000000000e+00 0.0000e+00 1.0000e+00
      -11  1    4    4    0    0 -1.1302294267e+01 -3.5446297645e+01 +2.8538428743e+01 4.6889484830e+01 0.0000000000e+00 0.0000e+00 1.0000e+00
       13  1    5    5    0    0 -1.3161176335e+01 +1.2249799346e+01 +1.7697628852e+01 2.5228559482e+01 0.0000000000e+00 0.0000e+00 1.0000e+00
<mgrwt>
<rscale>  0 0.12500066E+03</rscale>
<asrwt>0</asrwt>
<pdfrwt beam="1">  1       21 0.24173485E-01 0.12500066E+03</pdfrwt>
<pdfrwt beam="2">  1       21 0.10099628E-01 0.12500066E+03</pdfrwt>
<totfact> 0.12851090E+06</totfact>
</mgrwt>
</event>
<event>
 9      1 +9.5563000e+06 1.24986900e+02 7.81860800e-03 1.23509000e-01
       21 -1    0    0  502  501 +0.0000000000e+00 +0.0000000000e+00 +8.4899884230e+01 8.4899884230e+01 0.0000000000e+00 0.0000e+00 1.0000e+00
       21 -1    0    0  501  502 -0.0000000000e+00 -0.0000000000e+00 -4.6000460787e+01 4.6000460787e+01 0.0000000000e+00 0.0000e+00 1.0000e+00
       25  2    1    2    0    0 +0.0000000000e+00 +3.5527136788e-15 +3.8899423443e+01 1.3090034502e+02 1.2498694004e+02 0.0000e+00 0.0000e+00
  9000006  2    3    3    0    0 +2.5809578896e+00 +3.1963970026e+01 +5.6876685192e+01 7.6572279834e+01 3.9999999964e+01 0.0000e+00 0.0000e+00
  9000006  2    3    3    0    0 -2.5809578896e+00 -3.1963970026e+01 -1.7977261749e+01 5.4328065183e+01 4.0000000038e+01 0.0000e+00 0.0000e+00
      -11  1    5    5    0    0 -1.0750120752e+01 -3.8887832578e+01 -1.2147431190e+01 4.2135361673e+01 0.0000000000e+00 0.0000e+00 1.0000e+00
       13  1    4    4    0    0 -1.0650740405e+01 +2.4338146429e+01 +1.1967995003e+01 2.9137888515e+01 0.0000000000e+00 0.0000e+00 1.0000e+00
      -11  1    4    4    0    0 +1.3231698294e+01 +7.6258235970e+00 +4.4908690189e+01 4.7434391318e+01 0.0000000000e+00 0.0000e+00 1.0000e+00
       13  1    5    5    0    0 +8.1691628628e+00 +6.9238625525e+00 -5.8298305586e+00 1.2192703509e+01 0.0000000000e+00 0.0000e+00 1.0000e+00
<mgrwt>
<rscale>  0 0.12498694E+03</rscale>
<asrwt>0</asrwt>
<pdfrwt beam="1">  1       21 0.21224971E-01 0.12498694E+03</pdfrwt>
<pdfrwt beam="2">  1       21 0.11500115E-01 0.12498694E+03</pdfrwt>
<totfact> 0.13045957E+06</totfact>
</mgrwt>
</event>
<event>
 9      1 +9.5563000e+06 1.25034900e+02 7.81860800e-03 1.23501500e-01
       21 -1    0    0  502  501 +0.0000000000e+00 +0.0000000000e+00 +7.6753113058e+01 7.6753113058e+01 0.0000000000e+00 0.0000e+00 1.0000e+00
       21 -1    0    0  501  502 -0.0000000000e+00 -0.0000000000e+00 -5.0922125298e+01 5.0922125298e+01 0.0000000000e+00 0.0000e+00 1.0000e+00
       25  2    1    2    0    0 +7.1054273576e-15 +1.7763568394e-15 +2.5830987761e+01 1.2767523836e+02 1.2503490137e+02 0.0000e+00 0.0000e+00
  9000006  2    3    3    0    0 +3.1829787204e+01 -1.2215093361e+01 +4.7484298712e+01 7.0831507762e+01 4.0000000104e+01 0.0000e+00 0.0000e+00
  9000006  2    3    3    0    0 -3.1829787204e+01 +1.2215093361e+01 -2.1653310952e+01 5.6843730594e+01 3.9999999667e+01 0.0000e+00 0.0000e+00
      -11  1    4    4    0    0 +1.1394501919e+01 -2.3713989417e+01 +3.6354536770e+01 4.4875832157e+01 0.0000000000e+00 0.0000e+00 1.0000e+00
       13  1    4    4    0    0 +2.0435285285e+01 +1.1498896056e+01 +1.1129761942e+01 2.5955675605e+01 0.0000000000e+00 0.0000e+00 1.0000e+00
      -11  1    5    5    0    0 -1.9887284227e+01 +2.4319424649e+01 -2.9307539264e+00 3.1551985797e+01 0.0000000000e+00 0.0000e+00 1.0000e+00
       13  1    5    5    0    0 -1.1942502978e+01 -1.2104331288e+01 -1.8722557025e+01 2.5291744797e+01 0.0000000000e+00 0.0000e+00 1.0000e+00
<mgrwt>
<rscale>  0 0.12503490E+03</rscale>
<asrwt>0</asrwt>
<pdfrwt beam="1">  1       21 0.19188278E-01 0.12503490E+03</pdfrwt>
<pdfrwt beam="2">  1       21 0.12730531E-01 0.12503490E+03</pdfrwt>
<totfact> 0.13131134E+06</totfact>
</mgrwt>
</event>
<event>
 9      1 +9.5563000e+06 1.25000200e+02 7.81860800e-03 1.23506900e-01
       21 -1    0    0  502  501 +0.0000000000e+00 +0.0000000000e+00 +1.0089228547e+02 1.0089228547e+02 0.0000000000e+00 0.0000e+00 1.0000e+00
       21 -1    0    0  501  502 -0.0000000000e+00 -0.0000000000e+00 -3.8717156179e+01 3.8717156179e+01 0.0000000000e+00 0.0000e+00 1.0000e+00
       25  2    1    2    0    0 +7.1054273576e-15 +0.0000000000e+00 +6.2175129287e+01 1.3960944165e+02 1.2500019798e+02 0.0000e+00 0.0000e+00
  9000006  2    3    3    0    0 +3.5376208072e+01 +3.9628936105e+00 -4.9146276651e+00 5.3771127870e+01 4.0000000051e+01 0.0000e+00 0.0000e+00
  9000006  2    3    3    0    0 -3.5376208072e+01 -3.9628936105e+00 +6.7089756952e+01 8.5838313775e+01 4.0000000007e+01 0.0000e+00 0.0000e+00
      -11  1    5    5    0    0 -2.2843258118e+01 -2.0787137068e+01 +2.9069926650e+01 4.2414386054e+01 0.0000000000e+00 0.0000e+00 1.0000e+00
       13  1    4    4    0    0 +3.4180285559e+01 +1.0681206173e+01 +1.0160158121e+01 3.7223767934e+01 0.0000000000e+00 0.0000e+00 1.0000e+00
      -11  1    4    4    0    0 +1.1959225128e+00 -6.7183125625e+00 -1.5074785786e+01 1.6547359936e+01 0.0000000000e+00 0.0000e+00 1.0000e+00
       13  1    5    5    0    0 -1.2532949954e+01 +1.6824243458e+01 +3.8019830303e+01 4.3423927721e+01 0.0000000000e+00 0.0000e+00 1.0000e+00
<mgrwt>
<rscale>  0 0.12500020E+03</rscale>
<asrwt>0</asrwt>
<pdfrwt beam="1">  1       21 0.25223071E-01 0.12500020E+03</pdfrwt>
<pdfrwt beam="2">  1       21 0.96792893E-02 0.12500020E+03</pdfrwt>
<totfact> 0.12775522E+06</totfact>
</mgrwt>
</event>
<event>
 9      1 +9.5563000e+06 1.25002000e+02 7.81860800e-03 1.23506600e-01
       21 -1    0    0  502  501 +0.0000000000e+00 +0.0000000000e+00 +7.3706947495e+00 7.3706947495e+00 0.0000000000e+00 0.0000e+00 1.0000e+00
       21 -1    0    0  501  502 -0.0000000000e+00 -0.0000000000e+00 -5.2998755443e+02 5.2998755443e+02 0.0000000000e+00 0.0000e+00 1.0000e+00
       25  2    1    2    0    0 +1.7763568394e-15 +0.0000000000e+00 -5.2261685968e+02 5.3735824918e+02 1.2500202374e+02 0.0000e+00 0.0000e+00
  9000006  2    3    3    0    0 -1.2004205860e+01 +1.7257591145e+01 -4.4692740417e+02 4.4920599951e+02 3.9999999876e+01 0.0000e+00 0.0000e+00
  9000006  2    3    3    0    0 +1.2004205860e+01 -1.7257591145e+01 -7.5689455515e+01 8.8152249671e+01 4.0000000443e+01 0.0000e+00 0.0000e+00
      -11  1    5    5    0    0 -5.2659895264e+00 -9.7213342715e-01 -5.8742115083e+01 5.8985691261e+01 0.0000000000e+00 0.0000e+00 1.0000e+00
       13  1    4    4    0    0 -8.3435814052e+00 +5.4945721163e+00 -2.2716215594e+01 2.4815965110e+01 0.0000000000e+00 0.0000e+00 1.0000e+00
      -11  1    4    4    0    0 -3.6606244549e+00 +1.1763019028e+01 -4.2421118857e+02 4.2439003440e+02 0.0000000000e+00 0.0000e+00 1.0000e+00
       13  1    5    5    0    0 +1.7270195387e+01 -1.6285457717e+01 -1.6947340432e+01 2.9166558410e+01 0.0000000000e+00 0.0000e+00 1.0000e+00
<mgrwt>
<rscale>  0 0.12500202E+03</rscale>
<asrwt>0</asrwt>
<pdfrwt beam="1">  1       21 0.18426740E-02 0.12500202E+03</pdfrwt>
<pdfrwt beam="2">  1       21 0.13249687E+00 0.12500202E+03</pdfrwt>
<totfact> 0.58767498E+05</totfact>
</mgrwt>
</event>
<event>
 9      1 +9.5563000e+06 1.24992100e+02 7.81860800e-03 1.23508200e-01
       21 -1    0    0  502  501 +0.0000000000e+00 +0.0000000000e+00 +1.4090002799e+01 1.4090002799e+01 0.0000000000e+00 0.0000e+00 1.0000e+00
       21 -1    0    0  501  502 -0.0000000000e+00 -0.0000000000e+00 -2.7720039174e+02 2.7720039174e+02 0.0000000000e+00 0.0000e+00 1.0000e+00
       25  2    1    2    0    0 -3.5527136788e-15 +0.0000000000e+00 -2.6311038894e+02 2.9129039454e+02 1.2499206848e+02 0.0000e+00 0.0000e+00
  9000006  2    3    3    0    0 +2.5363242881e+01 +4.0765594885e+01 -1.3339978168e+02 1.4731133550e+02 3.9999999994e+01 0.0000e+00 0.0000e+00
  9000006  2    3    3    0    0 -2.5363242881e+01 -4.0765594885e+01 -1.2971060726e+02 1.4397905904e+02 3.9999999869e+01 0.0000e+00 0.0000e+00
      -11  1    4    4    0    0 +2.6513521054e+01 +7.7276224600e+00 -4.3498835177e+01 5.1525058072e+01 0.0000000000e+00 0.0000e+00 1.0000e+00
       13  1    4    4    0    0 -1.1502781733e+00 +3.3037972425e+01 -8.9900946501e+01 9.5786277429e+01 0.0000000000e+00 0.0000e+00 1.0000e+00
      -11  1    5    5    0    0 -1.4135925828e+01 +4.3473770290e+00 -4.4757178988e+01 4.7137343550e+01 0.0000000000e+00 0.0000e+00 1.0000e+00
       13  1    5    5    0    0 -1.1227317053e+01 -4.5112971914e+01 -8.4953428273e+01 9.6841715487e+01 0.0000000000e+00 0.0000e+00 1.0000e+00
<mgrwt>
<rscale>  0 0.12499207E+03</rscale>
<asrwt>0</asrwt>
<pdfrwt beam="1">  1       21 0.35225007E-02 0.12499207E+03</pdfrwt>
<pdfrwt beam="2">  1       21 0.69300098E-01 0.12499207E+03</pdfrwt>
<totfact> 0.92172061E+05</totfact>
</mgrwt>
</event>
<event>
 9      1 +9.5563000e+06 1.25005700e+02 7.81860800e-03 1.23506000e-01
       21 -1    0    0  502  501 +0.0000000000e+00 +0.0000000000e+00 +1.2678263227e+03 1.2678263227e+03 0.0000000000e+00 0.0000e+00 -1.0000e+00
       21 -1    0    0  501  502 -0.0000000000e+00 -0.0000000000e+00 -3.0813395383e+00 3.0813395383e+00 0.0000000000e+00 0.0000e+00 -1.0000e+00
       25  2    1    2    0    0 -3.5527136788e-15 +0.0000000000e+00 +1.2647449831e+03 1.2709076622e+03 1.2500565388e+02 0.0000e+00 0.0000e+00
  9000006  2    3    3    0    0 +1.4434342551e+01 +2.2001814665e+01 +2.2390319374e+02 2.2896521628e+02 4.0000000033e+01 0.0000e+00 0.0000e+00
  9000006  2    3    3    0    0 -1.4434342551e+01 -2.2001814665e+01 +1.0408417894e+03 1.0419424459e+03 4.0000000046e+01 0.0000e+00 0.0000e+00
      -11  1    4    4    0    0 +1.5841473755e+01 +2.4482921243e+01 +2.2420818314e+02 2.2609660570e+02 0.0000000000e+00 0.0000e+00 1.0000e+00
       13  1    4    4    0    0 -1.4071312041e+00 -2.4811065784e+00 -3.0498939865e-01 2.8686105718e+00 0.0000000000e+00 0.0000e+00 1.0000e+00
      -11  1    5    5    0    0 +6.2411293464e+00 -2.4815915012e+01 +6.9574547117e+02 6.9621587312e+02 0.0000000000e+00 0.0000e+00 1.0000e+00
       13  1    5    5    0    0 -2.0675471898e+01 +2.8141003473e+00 +3.4509631821e+02 3.4572657280e+02 0.0000000000e+00 0.0000e+00 1.0000e+00
<mgrwt>
<rscale>  0 0.12500565E+03</rscale>
<asrwt>0</asrwt>
<pdfrwt beam="1">  1       21 0.31695479E+00 0.12500565E+03</pdfrwt>
<pdfrwt beam="2">  1       21 0.77033923E-03 0.12500565E+03</pdfrwt>
<totfact> 0.16465407E+05</totfact>
</mgrwt>
</event>
<event>
 9      1 +9.5563000e+06 1.24999900e+02 7.81860800e-03 1.23506900e-01
       21 -1    0    0  502  501 +0.0000000000e+00 +0.0000000000e+00 +2.7084045556e+01 2.7084045556e+01 0.0000000000e+00 0.0000e+00 -1.0000e+00
       21 -1    0    0  501  502 -0.0000000000e+00 -0.0000000000e+00 -1.4422679267e+02 1.4422679267e+02 0.0000000000e+00 0.0000e+00 -1.0000e+00
       25  2    1    2    0    0 -1.7763568394e-15 +3.5527136788e-15 -1.1714274711e+02 1.7131083823e+02 1.2499992037e+02 0.0000e+00 0.0000e+00
  9000006  2    3    3    0    0 -1.4759259074e+01 +2.4617325104e+01 -1.1133775439e+02 1.2173719227e+02 4.0000000059e+01 0.0000e+00 0.0000e+00
  9000006  2    3    3    0    0 +1.4759259074e+01 -2.4617325104e+01 -5.8049927186e+00 4.9573645955e+01 4.0000000115e+01 0.0000e+00 0.0000e+00
      -11  1    4    4    0    0 -8.5099510719e+00 -6.6428907726e+00 -7.5758985602e+00 1.3188688489e+01 0.0000000000e+00 0.0000e+00 1.0000e+00
       13  1    4    4    0    0 -6.2493080020e+00 +3.1260215876e+01 -1.0376185583e+02 1.0854850378e+02 0.0000000000e+00 0.0000e+00 1.0000e+00
      -11  1    5    5    0    0 -1.4329765051e+00 -9.9231437126e+00 -2.0779530448e+01 2.3071867901e+01 0.0000000000e+00 0.0000e+00 1.0000e+00
       13  1    5    5    0    0 +1.6192235579e+01 -1.4694181391e+01 +1.4974537730e+01 2.6501778054e+01 0.0000000000e+00 0.0000e+00 1.0000e+00
<mgrwt>
<rscale>  0 0.12499992E+03</rscale>
<asrwt>0</asrwt>
<pdfrwt beam="1">  1       21 0.67710114E-02 0.12499992E+03</pdfrwt>
<pdfrwt beam="2">  1       21 0.36056698E-01 0.12499992E+03</pdfrwt>
<totfact> 0.11875604E+06</totfact>
</mgrwt>
</event>
<event>
 9      1 +9.5563000e+06 1.24984700e+02 7.81860800e-03 1.23509300e-01
       21 -1    0    0  502  501 +0.0000000000e+00 +0.0000000000e+00 +1.2215925241e+02 1.2215925241e+02 0.0000000000e+00 0.0000e+00 1.0000e+00
       21 -1    0    0  501  502 -0.0000000000e+00 -0.0000000000e+00 -3.1968898778e+01 3.1968898778e+01 0.0000000000e+00 0.0000e+00 1.0000e+00
       25  2    1    2    0    0 -4.4408920985e-16 -7.1054273576e-15 +9.0190353631e+01 1.5412815119e+02 1.2498474747e+02 0.0000e+00 0.0000e+00
  9000006  2    3    3    0    0 +2.7749440185e+00 -4.7698177906e+01 +5.0942079420e+01 8.0485476607e+01 3.9999999988e+01 0.0000e+00 0.0000e+00
  9000006  2    3    3    0    0 -2.7749440185e+00 +4.7698177906e+01 +3.9248274211e+01 7.3642674581e+01 4.0000000012e+01 0.0000e+00 0.0000e+00
      -11  1    5    5    0    0 +3.0920930616e+00 -9.0014141144e-01 +2.1242088448e+01 2.1484822916e+01 0.0000000000e+00 0.0000e+00 1.0000e+00
       13  1    4    4    0    0 -1.7001637811e+01 -1.8745398272e+01 +3.1455152532e+01 4.0371676525e+01 0.0000000000e+00 0.0000e+00 1.0000e+00
      -11  1    4    4    0    0 +1.9776581830e+01 -2.8952779634e+01 +1.9486926888e+01 4.0113800081e+01 0.0000000000e+00 0.0000e+00 1.0000e+00
       13  1    5    5    0    0 -5.8670370801e+00 +4.8598319318e+01 +1.8006185763e+01 5.2157851665e+01 0.0000000000e+00 0.0000e+00 1.0000e+00
<mgrwt>
<rscale>  0 0.12498475E+03</rscale>
<asrwt>0</asrwt>
<pdfrwt beam="1">  1       21 0.30539812E-01 0.12498475E+03</pdfrwt>
<pdfrwt beam="2">  1       21 0.79922250E-02 0.12498475E+03</pdfrwt>
<totfact> 0.12355326E+06</totfact>
</mgrwt>
</event>
<event>
 8      1 +9.5563000e+06 1.24995900e+02 7.81860800e-03 1.23507600e-01
       21 -1    0    0  502  501 +0.0000000000e+00 +0.0000000000e+00 +3.1164918219e+01 3.1164918219e+01 0.0000000000e+00 0.0000e+00 1.0000e+00
       21 -1    0    0  501  502 -0.0000000000e+00 -0.0000000000e+00 -1.2533297970e+02 1.2533297970e+02 0.0000000000e+00 0.0000e+00 1.0000e+00
       25  2    1    2    0    0 +0.0000000000e+00 +3.5527136788e-15 -9.4168061483e+01 1.5649789792e+02 1.2499587293e+02 0.0000e+00 0.0000e+00
  9000006  2    3    3    0    0 -3.2132423264e+01 +1.8906314517e+01 -8.4978211306e+01 1.0105066920e+02 3.9999999938e+01 0.0000e+00 0.0000e+00
      -11  1    3    3    0    0 +1.0849603908e+01 +7.3593674376e+00 +1.0077847742e+01 1.6535936900e+01 0.0000000000e+00 0.0000e+00 1.0000e+00
       13  1    3    3    0    0 +2.1282819356e+01 -2.6265681954e+01 -1.9267697918e+01 3.8911291823e+01 0.0000000000e+00 0.0000e+00 1.0000e+00
      -11  1    4    4    0    0 -8.5447756830e+00 -6.7129163680e+00 -5.1883567927e+01 5.3009254461e+01 0.0000000000e+00 0.0000e+00 1.0000e+00
       13  1    4    4    0    0 -2.3587647581e+01 +2.5619230885e+01 -3.3094643380e+01 4.8041414737e+01 0.0000000000e+00 0.0000e+00 1.0000e+00
<mgrwt>
<rscale>  0 0.12499587E+03</rscale>
<asrwt>0</asrwt>
<pdfrwt beam="1">  1       21 0.77912296E-02 0.12499587E+03</pdfrwt>
<pdfrwt beam="2">  1       21 0.31333245E-01 0.12499587E+03</pdfrwt>
<totfact> 0.12284329E+06</totfact>
</mgrwt>
</event>
<event>
 9      1 +9.5563000e+06 1.24999500e+02 7.81860800e-03 1.23507000e-01
       21 -1    0    0  502  501 +0.0000000000e+00 +0.0000000000e+00 +1.6433999068e+02 1.6433999068e+02 0.0000000000e+00 0.0000e+00 1.0000e+00
       21 -1    0    0  501  502 -0.0000000000e+00 -0.0000000000e+00 -2.3769132312e+01 2.3769132312e+01 0.0000000000e+00 0.0000e+00 1.0000e+00
       25  2    1    2    0    0 -3.5527136788e-15 -7.1054273576e-15 +1.4057085837e+02 1.8810912300e+02 1.2499950372e+02 0.0000e+00 0.0000e+00
  9000006  2    3    3    0    0 -2.0814744598e+01 -3.8192641262e+01 +1.0091581792e+02 1.1694414798e+02 3.9999999993e+01 0.0000e+00 0.0000e+00
  9000006  2    3    3    0    0 +2.0814744598e+01 +3.8192641262e+01 +3.9655040449e+01 7.1164975020e+01 3.9999999967e+01 0.0000e+00 0.0000e+00
      -11  1    5    5    0    0 -1.0075289224e+01 +1.7499250040e+01 +2.2454345935e+01 3.0198226046e+01 0.0000000000e+00 0.0000e+00 1.0000e+00
       13  1    4    4    0    0 -1.2912439341e+01 -4.6077829552e+01 +8.4073489332e+01 9.6738043574e+01 0.0000000000e+00 0.0000e+00 1.0000e+00
      -11  1    4    4    0    0 -7.9023052573e+00 +7.8851882900e+00 +1.6842328591e+01 2.0206104402e+01 0.0000000000e+00 0.0000e+00 1.0000e+00
       13  1    5    5    0    0 +3.0890033822e+01 +2.0693391222e+01 +1.7200694514e+01 4.0966748975e+01 0.0000000000e+00 0.0000e+00 1.0000e+00
<mgrwt>
<rscale>  0 0.12499950E+03</rscale>
<asrwt>0</asrwt>
<pdfrwt beam="1">  1       21 0.41084994E-01 0.12499950E+03</pdfrwt>
<pdfrwt beam="2">  1       21 0.59422836E-02 0.12499950E+03</pdfrwt>
<totfact> 0.11438878E+06</totfact>
</mgrwt>
</event>
<event>
 9      1 +9.5563000e+06 1.24994100e+02 7.81860800e-03 1.23507900e-01
       21 -1    0    0  502  501 +0.0000000000e+00 +0.0000000000e+00 +9.5143957895e+01 9.5143957895e+01 0.0000000000e+00 0.0000e+00 -1.0000e+00
       21 -1    0    0  501  502 -0.0000000000e+00 -0.0000000000e+00 -4.1052321432e+01 4.1052321432e+01 0.0000000000e+00 0.0000e+00 -1.0000e+00
       25  2    1    2    0    0 +0.0000000000e+00 -7.1054273576e-15 +5.4091636462e+01 1.3619627933e+02 1.2499408533e+02 0.0000e+00 0.0000e+00
  9000006  2    3    3    0    0 -2.4401044955e+01 +3.7887717921e+01 +4.5114828828e+01 7.5274417592e+01 3.9999999994e+01 0.0000e+00 0.0000e+00
  9000006  2    3    3    0    0 +2.4401044955e+01 -3.7887717921e+01 +8.9768076341e+00 6.0921861735e+01 3.9999999972e+01 0.0000e+00 0.0000e+00
      -11  1    4    4    0    0 -2.9667213741e+01 +4.3158097859e+01 +4.2261166797e+01 6.7296145514e+01 0.0000000000e+00 0.0000e+00 1.0000e+00
       13  1    4    4    0    0 +5.2661687865e+00 -5.2703799375e+00 +2.8536620313e+00 7.9782720787e+00 0.0000000000e+00 0.0000e+00 1.0000e+00
      -11  1    5    5    0    0 +2.9339061120e+01 -1.8848386120e+01 +1.8043667950e+01 3.9263419614e+01 0.0000000000e+00 0.0000e+00 1.0000e+00
       13  1    5    5    0    0 -4.9380161649e+00 -1.9039331801e+01 -9.0668603160e+00 2.1658442120e+01 0.0000000000e+00 0.0000e+00 1.0000e+00
<mgrwt>
<rscale>  0 0.12499409E+03</rscale>
<asrwt>0</asrwt>
<pdfrwt beam="1">  1       21 0.23785989E-01 0.12499409E+03</pdfrwt>
<pdfrwt beam="2">  1       21 0.10263081E-01 0.12499409E+03</pdfrwt>
<totfact> 0.12880487E+06</totfact>
</mgrwt>
</event>
<event>
 9      1 +9.5563000e+06 1.24996900e+02 7.81860800e-03 1.23507400e-01
       21 -1    0    0  502  501 +0.0000000000e+00 +0.0000000000e+00 +7.8145630161e+01 7.8145630161e+01 0.0000000000e+00 0.0000e+00 -1.0000e+00
       21 -1    0    0  501  502 -0.0000000000e+00 -0.0000000000e+00 -4.9984320042e+01 4.9984320042e+01 0.0000000000e+00 0.0000e+00 -1.0000e+00
       25  2    1    2    0    0 +0.0000000000e+00 +0.0000000000e+00 +2.8161310120e+01 1.2812995020e+02 1.2499689897e+02 0.0000e+00 0.0000e+00
  9000006  2    3    3    0    0 +2.8734751608e+01 +8.3076431799e+00 +5.2590280133e+01 7.2528893897e+01 4.0000000003e+01 0.0000e+00 0.0000e+00
  9000006  2    3    3    0    0 -2.8734751608e+01 -8.3076431799e+00 -2.4428970013e+01 5.5601056306e+01 4.0000000016e+01 0.0000e+00 0.0000e+00
      -11  1    5    5    0    0 -3.8826933747e+01 -7.2953576519e+00 -1.6900323373e+01 4.2969453774e+01 0.0000000000e+00 0.0000e+00 1.0000e+00
       13  1    4    4    0    0 +2.4951686176e+01 +3.9722204208e+00 +6.5104435133e+00 2.6091206428e+01 0.0000000000e+00 0.0000e+00 1.0000e+00
      -11  1    4    4    0    0 +3.7830654320e+00 +4.3354227591e+00 +4.6079836620e+01 4.6437687469e+01 0.0000000000e+00 0.0000e+00 1.0000e+00
       13  1    5    5    0    0 +1.0092182139e+01 -1.0122855280e+00 -7.5286466400e+00 1.2631602533e+01 0.0000000000e+00 0.0000e+00 1.0000e+00
<mgrwt>
<rscale>  0 0.12499690E+03</rscale>
<asrwt>0</asrwt>
<pdfrwt beam="1">  1       21 0.19536407E-01 0.12499690E+03</pdfrwt>
<pdfrwt beam="2">  1       21 0.12496080E-01 0.12499690E+03</pdfrwt>
<totfact> 0.13129787E+06</totfact>
</mgrwt>
</event>
<event>
 9      1 +9.5563000e+06 1.25003300e+02 7.81860800e-03 1.23506400e-01
       21 -1    0    0  502  501 +0.0000000000e+00 +0.0000000000e+00 +1.0172962583e+03 1.0172962583e+03 0.0000000000e+00 0.0000e+00 1.0000e+00
       21 -1    0    0  501  502 -0.0000000000e+00 -0.0000000000e+00 -3.8400401536e+00 3.8400401536e+00 0.0000000000e+00 0.0000e+00 1.0000e+00
       25  2    1    2    0    0 +8.8817841970e-16 -7.1054273576e-15 +1.0134562181e+03 1.0211362984e+03 1.2500333563e+02 0.0000e+00 0.0000e+00
  9000006  2    3    3    0    0 +2.0832157340e+00 -4.3262260886e+01 +6.7621901753e+02 6.7878429761e+02 4.0000000084e+01 0.0000e+00 0.0000e+00
  9000006  2    3    3    0    0 -2.0832157340e+00 +4.3262260886e+01 +3.3723720059e+02 3.4235200081e+02 3.9999999970e+01 0.0000e+00 0.0000e+00
      -11  1    4    4    0    0 +4.8219059353e-01 -4.8055336673e+01 +6.6107262637e+02 6.6281714313e+02 0.0000000000e+00 0.0000e+00 1.0000e+00
       13  1    4    4    0    0 +1.6010251404e+00 +4.7930757870e+00 +1.5146391155e+01 1.5967154475e+01 0.0000000000e+00 0.0000e+00 1.0000e+00
      -11  1    5    5    0    0 -8.5136634702e+00 +2.9098378467e+01 +3.0557209303e+02 3.0707247049e+02 0.0000000000e+00 0.0000e+00 1.0000e+00
       13  1    5    5    0    0 +6.4304477362e+00 +1.4163882418e+01 +3.1665107557e+01 3.5279530324e+01 0.0000000000e+00 0.0000e+00 1.0000e+00
<mgrwt>
<rscale>  0 0.12500334E+03</rscale>
<asrwt>0</asrwt>
<pdfrwt beam="1">  1       21 0.25432314E+00 0.12500334E+03</pdfrwt>
<pdfrwt beam="2">  1       21 0.96001352E-03 0.12500334E+03</pdfrwt>
<totfact> 0.26251949E+05</totfact>
</mgrwt>
</event>
<event>
 9      1 +9.5563000e+06 1.24996100e+02 7.81860800e-03 1.23507500e-01
       21 -1    0    0  502  501 +0.0000000000e+00 +0.0000000000e+00 +4.0872816606e+01 4.0872816606e+01 0.0000000000e+00 0.0000e+00 -1.0000e+00
       21 -1    0    0  501  502 -0.0000000000e+00 -0.0000000000e+00 -9.5564844665e+01 9.5564844665e+01 0.0000000000e+00 0.0000e+00 -1.0000e+00
       25  2    1    2    0    0 -3.5527136788e-15 +7.1054273576e-15 -5.4692028059e+01 1.3643766127e+02 1.2499606986e+02 0.0000e+00 0.0000e+00
  9000006  2    3    3    0    0 +1.4725430918e+01 -1.9866205466e+01 +1.7586290184e+01 5.0207389765e+01 3.9999999366e+01 0.0000e+00 0.0000e+00
  9000006  2    3    3    0    0 -1.4725430918e+01 +1.9866205466e+01 -7.2278318242e+01 8.6230271506e+01 4.0000000008e+01 0.0000e+00 0.0000e+00
      -11  1    5    5    0    0 -1.1971062274e+01 +2.2318542669e+01 -7.6524249607e+01 8.0606354940e+01 0.0000000000e+00 0.0000e+00 1.0000e+00
       13  1    4    4    0    0 +2.4139768045e+01 -1.9423229851e+01 +8.4468201424e-01 3.0995221355e+01 0.0000000000e+00 0.0000e+00 1.0000e+00
      -11  1    4    4    0    0 -9.4143371271e+00 -4.4297561435e-01 +1.6741608170e+01 1.9212168411e+01 0.0000000000e+00 0.0000e+00 1.0000e+00
       13  1    5    5    0    0 -2.7543686433e+00 -2.4523372035e+00 +4.2459313644e+00 5.6239165653e+00 0.0000000000e+00 0.0000e+00 1.0000e+00
<mgrwt>
<rscale>  0 0.12499607E+03</rscale>
<asrwt>0</asrwt>
<pdfrwt beam="1">  1       21 0.10218204E-01 0.12499607E+03</pdfrwt>
<pdfrwt beam="2">  1       21 0.23891211E-01 0.12499607E+03</pdfrwt>
<totfact> 0.12872485E+06</totfact>
</mgrwt>
</event>
<event>
 9      1 +9.5563000e+06 1.24999500e+02 7.81860800e-03 1.23507000e-01
       21 -1    0    0  502  501 +0.0000000000e+00 +0.0000000000e+00 +1.6035143805e+02 1.6035143805e+02 0.0000000000e+00 0.0000e+00 1.0000e+00
       21 -1    0    0  501  502 -0.0000000000e+00 -0.0000000000e+00 -2.4360354676e+01 2.4360354676e+01 0.0000000000e+00 0.0000e+00 1.0000e+00
       25  2    1    2    0    0 +0.0000000000e+00 -3.5527136788e-15 +1.3599108337e+02 1.8471179272e+02 1.2499948646e+02 0.0000e+00 0.0000e+00
  9000006  2    3    3    0    0 -3.4362710314e+01 +1.9398881115e+01 +1.0843989317e+02 1.2213239904e+02 4.0000000199e+01 0.0000e+00 0.0000e+00
  9000006  2    3    3    0    0 +3.4362710314e+01 -1.9398881115e+01 +2.7551190205e+01 6.2579393687e+01 3.9999999798e+01 0.0000e+00 0.0000e+00
      -11  1    4    4    0    0 -1.9449269364e+01 -9.5068819033e+00 +5.9994115847e+01 6.3780473646e+01 0.0000000000e+00 0.0000e+00 1.0000e+00
       13  1    4    4    0    0 -1.4913440950e+01 +2.8905763019e+01 +4.8445777318e+01 5.8351925389e+01 0.0000000000e+00 0.0000e+00 1.0000e+00
      -11  1    5    5    0    0 +1.4038123811e+00 -1.5094720032e+01 +2.5007128387e+01 2.9243422033e+01 0.0000000000e+00 0.0000e+00 1.0000e+00
       13  1    5    5    0    0 +3.2958897933e+01 -4.3041610830e+00 +2.5440618183e+00 3.3335971654e+01 0.0000000000e+00 0.0000e+00 1.0000e+00
<mgrwt>
<rscale>  0 0.12499949E+03</rscale>
<asrwt>0</asrwt>
<pdfrwt beam="1">  1       21 0.40087856E-01 0.12499949E+03</pdfrwt>
<pdfrwt beam="2">  1       21 0.60900891E-02 0.12499949E+03</pdfrwt>
<totfact> 0.11525576E+06</totfact>
</mgrwt>
</event>
<event>
 9      1 +9.5563000e+06 1.25002000e+02 7.81860800e-03 1.23506600e-01
       21 -1    0    0  502  501 +0.0000000000e+00 +0.0000000000e+00 +1.3564361017e+03 1.3564361017e+03 0.0000000000e+00 0.0000e+00 1.0000e+00
       21 -1    0    0  501  502 -0.0000000000e+00 -0.0000000000e+00 -2.8798791381e+00 2.8798791381e+00 0.0000000000e+00 0.0000e+00 1.0000e+00
       25  2    1    2    0    0 +0.0000000000e+00 +1.7763568394e-15 +1.3535562226e+03 1.3593159809e+03 1.2500195249e+02 0.0000e+00 0.0000e+00
  9000006  2    3    3    0    0 +4.1341503918e+01 +4.9995146861e+00 +9.3691333595e+02 9.3869095777e+02 4.0000000252e+01 0.0000e+00 0.0000e+00
  9000006  2    3    3    0    0 -4.1341503918e+01 -4.9995146861e+00 +4.1664288664e+02 4.2062502309e+02 3.9999999698e+01 0.0000e+00 0.0000e+00
      -11  1    4    4    0    0 -8.0324098542e+00 +3.3462026295e-01 +1.5194124484e+02 1.5215378228e+02 0.0000000000e+00 0.0000e+00 1.0000e+00
       13  1    4    4    0    0 +4.9373913772e+01 +4.6648944231e+00 +7.8497209111e+02 7.8653717549e+02 0.0000000000e+00 0.0000e+00 1.0000e+00
      -11  1    5    5    0    0 -3.0566905080e+01 +1.1349298230e+01 +1.6310129445e+02 1.6632851381e+02 0.0000000000e+00 0.0000e+00 1.0000e+00
       13  1    5    5    0    0 -1.0774598838e+01 -1.6348812916e+01 +2.5354159219e+02 2.5429650928e+02 0.0000000000e+00 0.0000e+00 1.0000e+00
<mgrwt>
<rscale>  0 0.12500195E+03</rscale>
<asrwt>0</asrwt>
<pdfrwt beam="1">  1       21 0.33910683E+00 0.12500195E+03</pdfrwt>
<pdfrwt beam="2">  1       21 0.71997444E-03 0.12500195E+03</pdfrwt>
<totfact> 0.13707135E+05</totfact>
</mgrwt>
</event>
<event>
 9      1 +9.5563000e+06 1.25006500e+02 7.81860800e-03 1.23505900e-01
       21 -1    0    0  502  501 +0.0000000000e+00 +0.0000000000e+00 +1.2647735159e+02 1.2647735159e+02 0.0000000000e+00 0.0000e+00 -1.0000e+00
       21 -1    0    0  501  502 -0.0000000000e+00 -0.0000000000e+00 -3.0888170156e+01 3.0888170156e+01 0.0000000000e+00 0.0000e+00 -1.0000e+00
       25  2    1    2    0    0 +0.0000000000e+00 +0.0000000000e+00 +9.5589181436e+01 1.5736552175e+02 1.2500646314e+02 0.0000e+00 0.0000e+00
  9000006  2    3    3    0    0 +2.8358950732e+01 -3.8500629868e+01 +5.3442008548e+01 8.2113194410e+01 3.9999997897e+01 0.0000e+00 0.0000e+00
  9000006  2    3    3    0    0 -2.8358950732e+01 +3.8500629868e+01 +4.2147172888e+01 7.5252327338e+01 4.0000000006e+01 0.0000e+00 0.0000e+00
      -11  1    4    4    0    0 -9.6159060221e+00 -1.1644266756e+01 +1.8821752759e+01 2.4131161883e+01 0.0000000000e+00 0.0000e+00 1.0000e+00
       13  1    4    4    0    0 +3.7974856754e+01 -2.6856363112e+01 +3.4620255790e+01 5.7982032528e+01 0.0000000000e+00 0.0000e+00 1.0000e+00
      -11  1    5    5    0    0 -1.1923436916e+01 +3.4537226456e+00 +3.3308849313e+01 3.5546814070e+01 0.0000000000e+00 0.0000e+00 1.0000e+00
       13  1    5    5    0    0 -1.6435513816e+01 +3.5046907222e+01 +8.8383235755e+00 3.9705513268e+01 0.0000000000e+00 0.0000e+00 1.0000e+00
<mgrwt>
<rscale>  0 0.12500646E+03</rscale>
<asrwt>0</asrwt>
<pdfrwt beam="1">  1       21 0.31619337E-01 0.12500646E+03</pdfrwt>
<pdfrwt beam="2">  1       21 0.77220429E-02 0.12500646E+03</pdfrwt>
<totfact> 0.12256407E+06</totfact>
</mgrwt>
</event>
<event>
 9      1 +9.5563000e+06 1.24997900e+02 7.81860800e-03 1.23507300e-01
       21 -1    0    0  502  501 +0.0000000000e+00 +0.0000000000e+00 +1.9461743779e+01 1.9461743779e+01 0.0000000000e+00 0.0000e+00 -1.0000e+00
       21 -1    0    0  501  502 -0.0000000000e+00 -0.0000000000e+00 -2.0070761641e+02 2.0070761641e+02 0.0000000000e+00 0.0000e+00 -1.0000e+00
       25  2    1    2    0    0 -3.5527136788e-15 +0.0000000000e+00 -1.8124587263e+02 2.2016936018e+02 1.2499792326e+02 0.0000e+00 0.0000e+00
  9000006  2    3    3    0    0 -2.0499119360e+01 +4.0474599755e+01 -1.1834519089e+02 1.3290594919e+02 4.0000000050e+01 0.0000e+00 0.0000e+00
  9000006  2    3    3    0    0 +2.0499119360e+01 -4.0474599755e+01 -6.2900681738e+01 8.7263410995e+01 4.0000000193e+01 0.0000e+00 0.0000e+00
      -11  1    4    4    0    0 -7.9087784715e+00 +4.4793117204e+01 -7.6568817916e+01 8.9060406482e+01 0.0000000000e+00 0.0000e+00 1.0000e+00
       13  1    4    4    0    0 -1.2590340889e+01 -4.3185174491e+00 -4.1776372972e+01 4.3845542707e+01 0.0000000000e+00 0.0000e+00 1.0000e+00
      -11  1    5    5    0    0 -5.8474458469e-01 -1.7104191731e+01 -5.0692155710e+01 5.3503177023e+01 0.0000000000e+00 0.0000e+00 1.0000e+00
       13  1    5    5    0    0 +2.1083863945e+01 -2.3370408024e+01 -1.2208526028e+01 3.3760233972e+01 0.0000000000e+00 0.0000e+00 1.0000e+00
<mgrwt>
<rscale>  0 0.12499792E+03</rscale>
<asrwt>0</asrwt>
<pdfrwt beam="1">  1       21 0.48654359E-02 0.12499792E+03</pdfrwt>
<pdfrwt beam="2">  1       21 0.50176904E-01 0.12499792E+03</pdfrwt>
<totfact> 0.10669407E+06</totfact>
</mgrwt>
</event>
<event>
 8      1 +9.5563000e+06 1.24889400e+02 7.81860800e-03 1.23524200e-01
       21 -1    0    0  502  501 +0.0000000000e+00 +0.0000000000e+00 +9.1648194031e+01 9.1648194031e+01 0.0000000000e+00 0.0000e+00 -1.0000e+00
       21 -1    0    0  501  502 -0.0000000000e+00 -0.0000000000e+00 -4.2546824194e+01 4.2546824194e+01 0.0000000000e+00 0.0000e+00 -1.0000e+00
  9000006  2    1    2    0    0 -2.5925197757e+01 -3.9557795003e+01 +1.6062416256e+01 6.3991688637e+01 3.9999999680e+01 0.0000e+00 0.0000e+00
  9000006  2    1    2    0    0 +2.5925197757e+01 +3.9557795003e+01 +3.3038953580e+01 7.0203329589e+01 4.0000000092e+01 0.0000e+00 0.0000e+00
      -11  1    4    4    0    0 +2.9330487130e+01 +4.3761565653e+01 +3.6216192767e+01 6.3929372923e+01 0.0000000000e+00 0.0000e+00 1.0000e+00
       13  1    3    3    0    0 +5.8345353889e+00 -1.9710307227e+01 +1.6777641828e+01 2.6533512385e+01 0.0000000000e+00 0.0000e+00 1.0000e+00
      -11  1    3    3    0    0 -3.1759733146e+01 -1.9847487776e+01 -7.1522557134e-01 3.7458176252e+01 0.0000000000e+00 0.0000e+00 1.0000e+00
       13  1    4    4    0    0 -3.4052893738e+00 -4.2037706496e+00 -3.1772391871e+00 6.2739566659e+00 0.0000000000e+00 0.0000e+00 1.0000e+00
<mgrwt>
<rscale>  0 0.12488938E+03</rscale>
<asrwt>0</asrwt>
<pdfrwt beam="1">  1       21 0.22912048E-01 0.12488938E+03</pdfrwt>
<pdfrwt beam="2">  1       21 0.10636706E-01 0.12488938E+03</pdfrwt>
<totfact> 0.12977323E+06</totfact>
</mgrwt>
</event>
<event>
 9      1 +9.5563000e+06 1.25011700e+02 7.81860800e-03 1.23505100e-01
       21 -1    0    0  502  501 +0.0000000000e+00 +0.0000000000e+00 +1.6355197399e+01 1.6355197399e+01 0.0000000000e+00 0.0000e+00 -1.0000e+00
       21 -1    0    0  501  502 -0.0000000000e+00 -0.0000000000e+00 -2.3888314522e+02 2.3888314522e+02 0.0000000000e+00 0.0000e+00 -1.0000e+00
       25  2    1    2    0    0 +0.0000000000e+00 +0.0000000000e+00 -2.2252794782e+02 2.5523834261e+02 1.2501169538e+02 0.0000e+00 0.0000e+00
  9000006  2    3    3    0    0 +3.3056634252e+01 -2.3732939149e+01 -1.6335724391e+02 1.7303636168e+02 3.9999998214e+01 0.0000e+00 0.0000e+00
  9000006  2    3    3    0    0 -3.3056634252e+01 +2.3732939149e+01 -5.9170703907e+01 8.2201980935e+01 4.0000000000e+01 0.0000e+00 0.0000e+00
      -11  1    5    5    0    0 -3.2479350071e+01 +1.2798426102e+01 -6.1765975734e+01 7.0948880542e+01 0.0000000000e+00 0.0000e+00 1.0000e+00
       13  1    4    4    0    0 +3.0552166600e+01 +2.5470194056e+00 -8.8813464767e+01 9.3956126547e+01 0.0000000000e+00 0.0000e+00 1.0000e+00
      -11  1    4    4    0    0 +2.5044676515e+00 -2.6279958554e+01 -7.4543779143e+01 7.9080235133e+01 0.0000000000e+00 0.0000e+00 1.0000e+00
       13  1    5    5    0    0 -5.7728418078e-01 +1.0934513047e+01 +2.5952718270e+00 1.1253100393e+01 0.0000000000e+00 0.0000e+00 1.0000e+00
<mgrwt>
<rscale>  0 0.12501170E+03</rscale>
<asrwt>0</asrwt>
<pdfrwt beam="1">  1       21 0.40887993E-02 0.12501170E+03</pdfrwt>
<pdfrwt beam="2">  1       21 0.59720786E-01 0.12501170E+03</pdfrwt>
<totfact> 0.99107706E+05</totfact>
</mgrwt>
</event>
<event>
 8      1 +9.5563000e+06 1.25097800e+02 7.81860800e-03 1.23491600e-01
       21 -1    0    0  502  501 +0.0000000000e+00 +0.0000000000e+00 +2.3645032482e+02 2.3645032482e+02 0.0000000000e+00 0.0000e+00 -1.0000e+00
       21 -1    0    0  501  502 -0.0000000000e+00 -0.0000000000e+00 -1.6546252599e+01 1.6546252599e+01 0.0000000000e+00 0.0000e+00 -1.0000e+00
  9000006  2    1    2    0    0 -4.2512872260e+01 -1.7779935567e+01 +1.3774767661e+02 1.5065819868e+02 4.0000000036e+01 0.0000e+00 0.0000e+00
  9000006  2    1    2    0    0 +4.2512872260e+01 +1.7779935567e+01 +8.2156395612e+01 1.0233837873e+02 4.0000000069e+01 0.0000e+00 0.0000e+00
      -11  1    3    3    0    0 -6.2331106702e+00 -1.9980416137e+01 +7.7677394787e+01 8.0447786536e+01 0.0000000000e+00 0.0000e+00 1.0000e+00
       13  1    3    3    0    0 -3.6279761590e+01 +2.2004805699e+00 +6.0070281819e+01 7.0210412144e+01 0.0000000000e+00 0.0000e+00 1.0000e+00
      -11  1    4    4    0    0 +1.7558094935e+01 -3.5503407225e+00 +5.1697717543e+00 1.8644520830e+01 0.0000000000e+00 0.0000e+00 1.0000e+00
       13  1    4    4    0    0 +2.4954777325e+01 +2.1330276290e+01 +7.6986623858e+01 8.3693857905e+01 0.0000000000e+00 0.0000e+00 1.0000e+00
<mgrwt>
<rscale>  0 0.12509783E+03</rscale>
<asrwt>0</asrwt>
<pdfrwt beam="1">  1       21 0.59112571E-01 0.12509783E+03</pdfrwt>
<pdfrwt beam="2">  1       21 0.41365639E-02 0.12509783E+03</pdfrwt>
<totfact> 0.99344835E+05</totfact>
</mgrwt>
</event>
<event>
 9      1 +9.5563000e+06 1.25002200e+02 7.81860800e-03 1.23506600e-01
       21 -1    0    0  502  501 +0.0000000000e+00 +0.0000000000e+00 +4.8744103726e+01 4.8744103726e+01 0.0000000000e+00 0.0000e+00 -1.0000e+00
       21 -1    0    0  501  502 -0.0000000000e+00 -0.0000000000e+00 -8.0140714738e+01 8.0140714738e+01 0.0000000000e+00 0.0000e+00 -1.0000e+00
       25  2    1    2    0    0 +1.4210854715e-14 -1.7763568394e-15 -3.1396611012e+01 1.2888481846e+02 1.2500219697e+02 0.0000e+00 0.0000e+00
  9000006  2    3    3    0    0 -4.4631478830e+01 +7.5685938676e+00 +8.3518564548e-01 6.0414815976e+01 3.9999999234e+01 0.0000e+00 0.0000e+00
  9000006  2    3    3    0    0 +4.4631478830e+01 -7.5685938676e+00 -3.2231796657e+01 6.8470002487e+01 4.0000000114e+01 0.0000e+00 0.0000e+00
      -11  1    5    5    0    0 +2.7224125275e+01 -9.3140251912e+00 -4.0044687858e+01 4.9310050577e+01 0.0000000000e+00 0.0000e+00 1.0000e+00
       13  1    4    4    0    0 -1.8202064091e+01 -1.5241391013e+01 -6.7650714780e+00 2.4685650271e+01 0.0000000000e+00 0.0000e+00 1.0000e+00
      -11  1    4    4    0    0 -2.6429414739e+01 +2.2809984881e+01 +7.6002571234e+00 3.5729165706e+01 0.0000000000e+00 0.0000e+00 1.0000e+00
       13  1    5    5    0    0 +1.7407353555e+01 +1.7454313236e+00 +7.8128912007e+00 1.9159951910e+01 0.0000000000e+00 0.0000e+00 1.0000e+00
<mgrwt>
<rscale>  0 0.12500220E+03</rscale>
<asrwt>0</asrwt>
<pdfrwt beam="1">  1       21 0.12186026E-01 0.12500220E+03</pdfrwt>
<pdfrwt beam="2">  1       21 0.20035179E-01 0.12500220E+03</pdfrwt>
<totfact> 0.13104021E+06</totfact>
</mgrwt>
</event>
<event>
 9      1 +9.5563000e+06 1.25002900e+02 7.81860800e-03 1.23506500e-01
       21 -1    0    0  502  501 +0.0000000000e+00 +0.0000000000e+00 +1.9879188203e+01 1.9879188203e+01 0.0000000000e+00 0.0000e+00 -1.0000e+00
       21 -1    0    0  501  502 -0.0000000000e+00 -0.0000000000e+00 -1.9650862810e+02 1.9650862810e+02 0.0000000000e+00 0.0000e+00 -1.0000e+00
       25  2    1    2    0    0 +0.0000000000e+00 +0.0000000000e+00 -1.7662943990e+02 2.1638781630e+02 1.2500291199e+02 0.0000e+00 0.0000e+00
  9000006  2    3    3    0    0 +1.1608334543e+01 +3.8136989679e+01 -4.1954282310e+01 7.0351582865e+01 3.9999999936e+01 0.0000e+00 0.0000e+00
  9000006  2    3    3    0    0 -1.1608334543e+01 -3.8136989679e+01 -1.3467515759e+02 1.4603623344e+02 3.9999999911e+01 0.0000e+00 0.0000e+00
      -11  1    5    5    0    0 -1.0449684818e+01 -3.2928144243e+01 -1.3617867100e+02 1.4049230951e+02 0.0000000000e+00 0.0000e+00 1.0000e+00
       13  1    4    4    0    0 +1.5613877559e+01 +2.2317204056e+00 -2.6961550014e+01 3.1236179785e+01 0.0000000000e+00 0.0000e+00 1.0000e+00
      -11  1    4    4    0    0 -4.0055430159e+00 +3.5905269273e+01 -1.4992732296e+01 3.9115403081e+01 0.0000000000e+00 0.0000e+00 1.0000e+00
       13  1    5    5    0    0 -1.1586497249e+00 -5.2088454364e+00 +1.5035134107e+00 5.5439239300e+00 0.0000000000e+00 0.0000e+00 1.0000e+00
<mgrwt>
<rscale>  0 0.12500291E+03</rscale>
<asrwt>0</asrwt>
<pdfrwt beam="1">  1       21 0.49697971E-02 0.12500291E+03</pdfrwt>
<pdfrwt beam="2">  1       21 0.49127156E-01 0.12500291E+03</pdfrwt>
<totfact> 0.10754536E+06</totfact>
</mgrwt>
</event>
<event>
 9      1 +9.5563000e+06 1.25000200e+02 7.81860800e-03 1.23506900e-01
       21 -1    0    0  502  501 +0.0000000000e+00 +0.0000000000e+00 +2.8491745270e+02 2.8491745270e+02 0.0000000000e+00 0.0000e+00 -1.0000e+00
       21 -1    0    0  501  502 -0.0000000000e+00 -0.0000000000e+00 -1.3710152186e+01 1.3710152186e+01 0.0000000000e+00 0.0000e+00 -1.0000e+00
       25  2    1    2    0    0 -3.5527136788e-15 -7.1054273576e-15 +2.7120730052e+02 2.9862760489e+02 1.2500018619e+02 0.0000e+00 0.0000e+00
  9000006  2    3    3    0    0 +3.0212251983e+01 +2.7330905159e+01 +1.9634781931e+02 2.0448037729e+02 4.0000000019e+01 0.0000e+00 0.0000e+00
  9000006  2    3    3    0    0 -3.0212251983e+01 -2.7330905159e+01 +7.4859481206e+01 9.4147227599e+01 3.9999999894e+01 0.0000e+00 0.0000e+00
      -11  1    5    5    0    0 -3.1211931554e+01 -4.0664350360e+00 +2.9399159745e+01 4.3070072660e+01 0.0000000000e+00 0.0000e+00 1.0000e+00
       13  1    4    4    0    0 -6.9650774457e+00 -3.9775957394e+00 +3.8164445287e+01 3.8998185288e+01 0.0000000000e+00 0.0000e+00 1.0000e+00
      -11  1    4    4    0    0 +3.7177329429e+01 +3.1308500898e+01 +1.5818337402e+02 1.6548219200e+02 0.0000000000e+00 0.0000e+00 1.0000e+00
       13  1    5    5    0    0 +9.9967957091e-01 -2.3264470123e+01 +4.5460321461e+01 5.1077154939e+01 0.0000000000e+00 0.0000e+00 1.0000e+00
<mgrwt>
<rscale>  0 0.12500019E+03</rscale>
<asrwt>0</asrwt>
<pdfrwt beam="1">  1       21 0.71229344E-01 0.12500019E+03</pdfrwt>
<pdfrwt beam="2">  1       21 0.34275390E-02 0.12500019E+03</pdfrwt>
<totfact> 0.90819988E+05</totfact>
</mgrwt>
</event>
<event>
 9      1 +9.5563000e+06 1.25002200e+02 7.81860800e-03 1.23506600e-01
       21 -1    0    0  502  501 +0.0000000000e+00 +0.0000000000e+00 +8.8960042947e+01 8.8960042947e+01 0.0000000000e+00 0.0000e+00 -1.0000e+00
       21 -1    0    0  501  502 -0.0000000000e+00 -0.0000000000e+00 -4.3911675448e+01 4.3911675448e+01 0.0000000000e+00 0.0000e+00 -1.0000e+00
       25  2    1    2    0    0 +1.7763568394e-15 +7.1054273576e-15 +4.5048367499e+01 1.3287171840e+02 1.2500215252e+02 0.0000e+00 0.0000e+00
  9000006  2    3    3    0    0 +4.3756750268e+00 -3.8228529776e+01 -8.0220099313e+00 5.6079583553e+01 4.0000000342e+01 0.0000e+00 0.0000e+00
  9000006  2    3    3    0    0 -4.3756750268e+00 +3.8228529776e+01 +5.3070377431e+01 7.6792134842e+01 3.9999999903e+01 0.0000e+00 0.0000e+00
      -11  1    5    5    0    0 -2.0992526188e+01 +2.2002425359e+01 +3.9647461845e+01 4.9967130278e+01 0.0000000000e+00 0.0000e+00 1.0000e+00
       13  1    4    4    0    0 +7.5224955111e+00 +3.3682552169e+00 -1.1578636424e+01 1.4212596643e+01 0.0000000000e+00 0.0000e+00 1.0000e+00
      -11  1    4    4    0    0 -3.1468204844e+00 -4.1596784993e+01 +3.5566264922e+00 4.1866986910e+01 0.0000000000e+00 0.0000e+00 1.0000e+00
       13  1    5    5    0    0 +1.6616851161e+01 +1.6226104417e+01 +1.3422915585e+01 2.6825004564e+01 0.0000000000e+00 0.0000e+00 1.0000e+00
<mgrwt>
<rscale>  0 0.12500215E+03</rscale>
<asrwt>0</asrwt>
<pdfrwt beam="1">  1       21 0.22240010E-01 0.12500215E+03</pdfrwt>
<pdfrwt beam="2">  1       21 0.10977919E-01 0.12500215E+03</pdfrwt>
<totfact> 0.12979541E+06</totfact>
</mgrwt>
</event>
<event>
 9      1 +9.5563000e+06 1.25009900e+02 7.81860800e-03 1.23505400e-01
       21 -1    0    0  502  501 +0.0000000000e+00 +0.0000000000e+00 +3.1443551498e+02 3.1443551498e+02 0.0000000000e+00 0.0000e+00 -1.0000e+00
       21 -1    0    0  501  502 -0.0000000000e+00 -0.0000000000e+00 -1.2425031834e+01 1.2425031834e+01 0.0000000000e+00 0.0000e+00 -1.0000e+00
       25  2    1    2    0    0 +1.7763568394e-15 -1.4210854715e-14 +3.0201048314e+02 3.2686054681e+02 1.2500994014e+02 0.0000e+00 0.0000e+00
  9000006  2    3    3    0    0 +1.2395710723e+01 -3.9504277530e+01 +8.7353592017e+01 1.0461783604e+02 3.9999999908e+01 0.0000e+00 0.0000e+00
  9000006  2    3    3    0    0 -1.2395710723e+01 +3.9504277530e+01 +2.1465689112e+02 2.2224271077e+02 3.9999999919e+01 0.0000e+00 0.0000e+00
      -11  1    5    5    0    0 +7.6149278001e+00 +2.6757477209e+01 +1.6352383133e+02 1.6587342501e+02 0.0000000000e+00 0.0000e+00 1.0000e+00
       13  1    4    4    0    0 +8.7349992808e+00 -4.7085992337e+01 +6.5040182901e+01 8.0768906632e+01 0.0000000000e+00 0.0000e+00 1.0000e+00
      -11  1    4    4    0    0 +3.6607114422e+00 +7.5817148067e+00 +2.2313409116e+01 2.3848929411e+01 0.0000000000e+00 0.0000e+00 1.0000e+00
       13  1    5    5    0    0 -2.0010638523e+01 +1.2746800321e+01 +5.1133059797e+01 5.6369285757e+01 0.0000000000e+00 0.0000e+00 1.0000e+00
<mgrwt>
<rscale>  0 0.12500994E+03</rscale>
<asrwt>0</asrwt>
<pdfrwt beam="1">  1       21 0.78608853E-01 0.12500994E+03</pdfrwt>
<pdfrwt beam="2">  1       21 0.31062590E-02 0.12500994E+03</pdfrwt>
<totfact> 0.85922225E+05</totfact>
</mgrwt>
</event>
<event>
 9      1 +9.5563000e+06 1.25002100e+02 7.81860800e-03 1.23506600e-01
       21 -1    0    0  502  501 +0.0000000000e+00 +0.0000000000e+00 +1.2965224926e+01 1.2965224926e+01 0.0000000000e+00 0.0000e+00 -1.0000e+00
       21 -1    0    0  501  502 -0.0000000000e+00 -0.0000000000e+00 -3.0129661202e+02 3.0129661202e+02 0.0000000000e+00 0.0000e+00 -1.0000e+00
       25  2    1    2    0    0 +0.0000000000e+00 +0.0000000000e+00 -2.8833138709e+02 3.1426183694e+02 1.2500205349e+02 0.0000e+00 0.0000e+00
  9000006  2    3    3    0    0 +4.4353186418e+01 +5.4767342367e+00 -1.8837148771e+02 1.9768919327e+02 3.9999999907e+01 0.0000e+00 0.0000e+00
  9000006  2    3    3    0    0 -4.4353186418e+01 -5.4767342367e+00 -9.9959899386e+01 1.1657264367e+02 4.0000000050e+01 0.0000e+00 0.0000e+00
      -11  1    5    5    0    0 -4.4826300284e+01 -1.7309341997e+01 -7.7677908808e+01 9.1339301696e+01 0.0000000000e+00 0.0000e+00 1.0000e+00
       13  1    4    4    0    0 +3.4207320546e+00 -6.8796238261e+00 -4.4831141537e+00 8.8954451430e+00 0.0000000000e+00 0.0000e+00 1.0000e+00
      -11  1    4    4    0    0 +4.0932454364e+01 +1.2356358063e+01 -1.8388837355e+02 1.8879374813e+02 0.0000000000e+00 0.0000e+00 1.0000e+00
       13  1    5    5    0    0 +4.7311386536e-01 +1.1832607761e+01 -2.2281990579e+01 2.5233341976e+01 0.0000000000e+00 0.0000e+00 1.0000e+00
<mgrwt>
<rscale>  0 0.12500205E+03</rscale>
<asrwt>0</asrwt>
<pdfrwt beam="1">  1       21 0.32413062E-02 0.12500205E+03</pdfrwt>
<pdfrwt beam="2">  1       21 0.75324153E-01 0.12500205E+03</pdfrwt>
<totfact> 0.88067783E+05</totfact>
</mgrwt>
</event>
<event>
 9      1 +9.5563000e+06 1.25001400e+02 7.81860800e-03 1.23506700e-01
       21 -1    0    0  502  501 +0.0000000000e+00 +0.0000000000e+00 +5.5935392523e+00 5.5935392523e+00 0.0000000000e+00 0.0000e+00 -1.0000e+00
       21 -1    0    0  501  502 -0.0000000000e+00 -0.0000000000e+00 -6.9836555001e+02 6.9836555001e+02 0.0000000000e+00 0.0000e+00 -1.0000e+00
       25  2    1    2    0    0 -1.7763568394e-15 -1.7763568394e-15 -6.9277201076e+02 7.0395908926e+02 1.2500136186e+02 0.0000e+00 0.0000e+00
  9000006  2    3    3    0    0 -6.5044141354e+00 +1.0742646364e+01 -8.5342547915e+01 9.5084501042e+01 3.9999999996e+01 0.0000e+00 0.0000e+00
  9000006  2    3    3    0    0 +6.5044141354e+00 -1.0742646364e+01 -6.0742946284e+02 6.0887458822e+02 3.9999999956e+01 0.0000e+00 0.0000e+00
      -11  1    4    4    0    0 -2.0744147668e+01 -4.2871783718e+00 -4.1126002037e+01 4.6260648551e+01 0.0000000000e+00 0.0000e+00 1.0000e+00
       13  1    4    4    0    0 +1.4239733533e+01 +1.5029824736e+01 -4.4216545878e+01 4.8823852491e+01 0.0000000000e+00 0.0000e+00 1.0000e+00
      -11  1    5    5    0    0 +9.1864823238e+00 -2.4786546919e+01 -4.5815835748e+02 4.5892030342e+02 0.0000000000e+00 0.0000e+00 1.0000e+00
       13  1    5    5    0    0 -2.6820681884e+00 +1.4043900555e+01 -1.4927110537e+02 1.4995428480e+02 0.0000000000e+00 0.0000e+00 1.0000e+00
<mgrwt>
<rscale>  0 0.12500136E+03</rscale>
<asrwt>0</asrwt>
<pdfrwt beam="1">  1       21 0.13983844E-02 0.12500136E+03</pdfrwt>
<pdfrwt beam="2">  1       21 0.17459143E+00 0.12500136E+03</pdfrwt>
<totfact> 0.44544647E+05</totfact>
</mgrwt>
</event>
<event>
 9      1 +9.5563000e+06 1.25010400e+02 7.81860800e-03 1.23505300e-01
       21 -1    0    0  502  501 +0.0000000000e+00 +0.0000000000e+00 +2.0503643574e+01 2.0503643574e+01 0.0000000000e+00 0.0000e+00 1.0000e+00
       21 -1    0    0  501  502 -0.0000000000e+00 -0.0000000000e+00 -1.9054663847e+02 1.9054663847e+02 0.0000000000e+00 0.0000e+00 1.0000e+00
       25  2    1    2    0    0 -3.5527136788e-15 -1.4210854715e-14 -1.7004299490e+02 2.1105028205e+02 1.2501040532e+02 0.0000e+00 0.0000e+00
  9000006  2    3    3    0    0 -1.0669955723e+01 -4.5641128206e+01 -1.0272329146e+02 1.1978745824e+02 4.0000000047e+01 0.0000e+00 0.0000e+00
  9000006  2    3    3    0    0 +1.0669955723e+01 +4.5641128206e+01 -6.7319703437e+01 9.1262823807e+01 3.9999999991e+01 0.0000e+00 0.0000e+00
      -11  1    4    4    0    0 -2.2266592376e+01 -1.0509819016e+01 -4.1438590572e+01 4.8201807232e+01 0.0000000000e+00 0.0000e+00 1.0000e+00
       13  1    4    4    0    0 +1.1596636654e+01 -3.5131309190e+01 -6.1284700889e+01 7.1585651007e+01 0.0000000000e+00 0.0000e+00 1.0000e+00
      -11  1    5    5    0    0 +1.6784127343e+01 +4.8197715584e+01 -4.5209639707e+01 6.8180922850e+01 0.0000000000e+00 0.0000e+00 1.0000e+00
       13  1    5    5    0    0 -6.1141716205e+00 -2.5565873784e+00 -2.2110063730e+01 2.3081900957e+01 0.0000000000e+00 0.0000e+00 1.0000e+00
<mgrwt>
<rscale>  0 0.12501041E+03</rscale>
<asrwt>0</asrwt>
<pdfrwt beam="1">  1       21 0.51259108E-02 0.12501041E+03</pdfrwt>
<pdfrwt beam="2">  1       21 0.47636660E-01 0.12501041E+03</pdfrwt>
<totfact> 0.10876394E+06</totfact>
</mgrwt>
</event>
<event>
 9      1 +9.5563000e+06 1.25001000e+02 7.81860800e-03 1.23506800e-01
       21 -1    0    0  502  501 +0.0000000000e+00 +0.0000000000e+00 +6.3146859309e+01 6.3146859309e+01 0.0000000000e+00 0.0000e+00 1.0000e+00
       21 -1    0    0  501  502 -0.0000000000e+00 -0.0000000000e+00 -6.1860802490e+01 6.1860802490e+01 0.0000000000e+00 0.0000e+00 1.0000e+00
       25  2    1    2    0    0 +0.0000000000e+00 +0.0000000000e+00 +1.2860568197e+00 1.2500766180e+02 1.2500104626e+02 0.0000e+00 0.0000e+00
  9000006  2    3    3    0    0 -4.7057714190e+01 +9.4383426312e+00 -1.0317591272e+00 6.2486600928e+01 3.9999999903e+01 0.0000e+00 0.0000e+00
  9000006  2    3    3    0    0 +4.7057714190e+01 -9.4383426312e+00 +2.3178159469e+00 6.2521060871e+01 4.0000000067e+01 0.0000e+00 0.0000e+00
      -11  1    5    5    0    0 -4.2140887158e+00 -7.0414382437e+00 +7.2589928165e+00 1.0955974304e+01 0.0000000000e+00 0.0000e+00 1.0000e+00
       13  1    4    4    0    0 -1.2946964087e+01 +1.8836722903e+01 +1.0663286760e+01 2.5222047762e+01 0.0000000000e+00 0.0000e+00 1.0000e+00
      -11  1    4    4    0    0 -3.4110750103e+01 -9.3983802720e+00 -1.1695045887e+01 3.7264553165e+01 0.0000000000e+00 0.0000e+00 1.0000e+00
       13  1    5    5    0    0 +5.1271802906e+01 -2.3969043875e+00 -4.9411768696e+00 5.1565086567e+01 0.0000000000e+00 0.0000e+00 1.0000e+00
<mgrwt>
<rscale>  0 0.12500105E+03</rscale>
<asrwt>0</asrwt>
<pdfrwt beam="1">  1       21 0.15786715E-01 0.12500105E+03</pdfrwt>
<pdfrwt beam="2">  1       21 0.15465201E-01 0.12500105E+03</pdfrwt>
<totfact> 0.13226082E+06</totfact>
</mgrwt>
</event>
<event>
 9      1 +9.5563000e+06 1.25007600e+02 7.81860800e-03 1.23505700e-01
       21 -1    0    0  502  501 +0.0000000000e+00 +0.0000000000e+00 +2.4666282859e+01 2.4666282859e+01 0.0000000000e+00 0.0000e+00 -1.0000e+00
       21 -1    0    0  501  502 -0.0000000000e+00 -0.0000000000e+00 -1.5838330454e+02 1.5838330454e+02 0.0000000000e+00 0.0000e+00 -1.0000e+00
       25  2    1    2    0    0 +0.0000000000e+00 +0.0000000000e+00 -1.3371702168e+02 1.8304958740e+02 1.2500763801e+02 0.0000e+00 0.0000e+00
  9000006  2    3    3    0    0 +2.8304053270e+01 +8.7035549482e+00 -1.1488020454e+01 5.1076862761e+01 3.9999999941e+01 0.0000e+00 0.0000e+00
  9000006  2    3    3    0    0 -2.8304053270e+01 -8.7035549482e+00 -1.2222900123e+02 1.3197272464e+02 4.0000000090e+01 0.0000e+00 0.0000e+00
      -11  1    4    4    0    0 +3.7045726414e+01 +1.8812378007e+00 -3.1965319372e+00 3.7230937641e+01 0.0000000000e+00 0.0000e+00 1.0000e+00
       13  1    4    4    0    0 -8.7416731437e+00 +6.8223171475e+00 -8.2914885168e+00 1.3845925120e+01 0.0000000000e+00 0.0000e+00 1.0000e+00
      -11  1    5    5    0    0 -1.1401758357e+01 -8.3880967831e+00 -7.5271593927e+00 1.6031793094e+01 0.0000000000e+00 0.0000e+00 1.0000e+00
       13  1    5    5    0    0 -1.6902294913e+01 -3.1545816513e-01 -1.1470184184e+02 1.1594093155e+02 0.0000000000e+00 0.0000e+00 1.0000e+00
<mgrwt>
<rscale>  0 0.12500764E+03</rscale>
<asrwt>0</asrwt>
<pdfrwt beam="1">  1       21 0.61665708E-02 0.12500764E+03</pdfrwt>
<pdfrwt beam="2">  1       21 0.39595825E-01 0.12500764E+03</pdfrwt>
<totfact> 0.11565865E+06</totfact>
</mgrwt>
</event>
<event>
 9      1 +9.5563000e+06 1.24997400e+02 7.81860800e-03 1.23507300e-01
       21 -1    0    0  502  501 +0.0000000000e+00 +0.0000000000e+00 +9.5361340952e+01 9.5361340952e+01 0.0000000000e+00 0.0000e+00 1.0000e+00
       21 -1    0    0  501  502 -0.0000000000e+00 -0.0000000000e+00 -4.0960933428e+01 4.0960933428e+01 0.0000000000e+00 0.0000e+00 1.0000e+00
       25  2    1    2    0    0 +0.0000000000e+00 +0.0000000000e+00 +5.4400407524e+01 1.3632227438e+02 1.2499743259e+02 0.0000e+00 0.0000e+00
  9000006  2    3    3    0    0 -2.3032699128e+01 +3.9733380330e+00 -1.8550418318e+01 4.9904014521e+01 4.0000000016e+01 0.0000e+00 0.0000e+00
  9000006  2    3    3    0    0 +2.3032699128e+01 -3.9733380330e+00 +7.2950825842e+01 8.6418259859e+01 4.0000000023e+01 0.0000e+00 0.0000e+00
      -11  1    4    4    0    0 +3.3509153806e+00 +1.1612509246e+01 +5.6082158823e+00 1.3324079340e+01 0.0000000000e+00 0.0000e+00 1.0000e+00
       13  1    4    4    0    0 -2.6383614509e+01 -7.6391712135e+00 -2.4158634201e+01 3.6579935180e+01 0.0000000000e+00 0.0000e+00 1.0000e+00
      -11  1    5    5    0    0 +3.1022164804e+01 +6.5764993826e+00 +4.0980699620e+01 5.1817398570e+01 0.0000000000e+00 0.0000e+00 1.0000e+00
       13  1    5    5    0    0 -7.9894656761e+00 -1.0549837416e+01 +3.1970126222e+01 3.4600861289e+01 0.0000000000e+00 0.0000e+00 1.0000e+00
<mgrwt>
<rscale>  0 0.12499743E+03</rscale>
<asrwt>0</asrwt>
<pdfrwt beam="1">  1       21 0.23840335E-01 0.12499743E+03</pdfrwt>
<pdfrwt beam="2">  1       21 0.10240234E-01 0.12499743E+03</pdfrwt>
<totfact> 0.12875525E+06</totfact>
</mgrwt>
</event>
<event>
 9      1 +9.5563000e+06 1.25000800e+02 7.81860800e-03 1.23506800e-01
       21 -1    0    0  502  501 +0.0000000000e+00 +0.0000000000e+00 +9.2070019925e+00 9.2070019925e+00 0.0000000000e+00 0.0000e+00 -1.0000e+00
       21 -1    0    0  501  502 -0.0000000000e+00 -0.0000000000e+00 -4.2427501702e+02 4.2427501702e+02 0.0000000000e+00 0.0000e+00 -1.0000e+00
       25  2    1    2    0    0 +0.0000000000e+00 +0.0000000000e+00 -4.1506801503e+02 4.3348201901e+02 1.2500081483e+02 0.0000e+00 0.0000e+00
  9000006  2    3    3    0    0 -2.4405823372e+01 -2.6242512156e+01 -3.1839556719e+02 3.2289324994e+02 3.9999999934e+01 0.0000e+00 0.0000e+00
  9000006  2    3    3    0    0 +2.4405823372e+01 +2.6242512156e+01 -9.6672447837e+01 1.1058876907e+02 4.0000000180e+01 0.0000e+00 0.0000e+00
      -11  1    5    5    0    0 -4.9520271608e+00 +1.6514166708e+01 -1.3641437672e+01 2.1984746913e+01 0.0000000000e+00 0.0000e+00 1.0000e+00
       13  1    4    4    0    0 -3.0208151337e+01 -1.5817891965e+01 -1.3975699296e+02 1.4385671758e+02 0.0000000000e+00 0.0000e+00 1.0000e+00
      -11  1    4    4    0    0 +5.8023279656e+00 -1.0424620191e+01 -1.7863857423e+02 1.7903653236e+02 0.0000000000e+00 0.0000e+00 1.0000e+00
       13  1    5    5    0    0 +2.9357850532e+01 +9.7283454484e+00 -8.3031010165e+01 8.8604022155e+01 0.0000000000e+00 0.0000e+00 1.0000e+00
<mgrwt>
<rscale>  0 0.12500081E+03</rscale>
<asrwt>0</asrwt>
<pdfrwt beam="1">  1       21 0.23017505E-02 0.12500081E+03</pdfrwt>
<pdfrwt beam="2">  1       21 0.10606875E+00 0.12500081E+03</pdfrwt>
<totfact> 0.70455465E+05</totfact>
</mgrwt>
</event>
<event>
 9      1 +9.5563000e+06 1.24998600e+02 7.81860800e-03 1.23507100e-01
       21 -1    0    0  502  501 +0.0000000000e+00 +0.0000000000e+00 +2.4595445623e+02 2.4595445623e+02 0.0000000000e+00 0.0000e+00 1.0000e+00
       21 -1    0    0  501  502 -0.0000000000e+00 -0.0000000000e+00 -1.5881657886e+01 1.5881657886e+01 0.0000000000e+00 0.0000e+00 1.0000e+00
       25  2    1    2    0    0 +1.7763568394e-15 +1.4210854715e-14 +2.3007279834e+02 2.6183611411e+02 1.2499863246e+02 0.0000e+00 0.0000e+00
  9000006  2    3    3    0    0 +1.0548445047e+01 -4.2948265570e+01 +1.5424397258e+02 1.6536936324e+02 4.0000000139e+01 0.0000e+00 0.0000e+00
  9000006  2    3    3    0    0 -1.0548445047e+01 +4.2948265570e+01 +7.5828825759e+01 9.6466750876e+01 4.0000000003e+01 0.0000e+00 0.0000e+00
      -11  1    5    5    0    0 -1.8763188994e+01 +6.8977207753e+00 +1.3930176314e+01 2.4365664884e+01 0.0000000000e+00 0.0000e+00 1.0000e+00
       13  1    4    4    0    0 +1.3103295748e+01 -4.3631923090e+01 +1.5578418666e+02 1.6230882258e+02 0.0000000000e+00 0.0000e+00 1.0000e+00
      -11  1    4    4    0    0 -2.5548507006e+00 +6.8365752009e-01 -1.5402140821e+00 3.0605406591e+00 0.0000000000e+00 0.0000e+00 1.0000e+00
       13  1    5    5    0    0 +8.2147439464e+00 +3.6050544795e+01 +6.1898649445e+01 7.2101085992e+01 0.0000000000e+00 0.0000e+00 1.0000e+00
<mgrwt>
<rscale>  0 0.12499863E+03</rscale>
<asrwt>0</asrwt>
<pdfrwt beam="1">  1       21 0.61488602E-01 0.12499863E+03</pdfrwt>
<pdfrwt beam="2">  1       21 0.39704153E-02 0.12499863E+03</pdfrwt>
<totfact> 0.97805836E+05</totfact>
</mgrwt>
</event>
<event>
 9      1 +9.5563000e+06 1.25000900e+02 7.81860800e-03 1.23506800e-01
       21 -1    0    0  502  501 +0.0000000000e+00 +0.0000000000e+00 +3.9692878557e+01 3.9692878557e+01 0.0000000000e+00 0.0000e+00 -1.0000e+00
       21 -1    0    0  501  502 -0.0000000000e+00 -0.0000000000e+00 -9.8413318824e+01 9.8413318824e+01 0.0000000000e+00 0.0000e+00 -1.0000e+00
       25  2    1    2    0    0 +0.0000000000e+00 -7.1054273576e-15 -5.8720440267e+01 1.3810619738e+02 1.2500092660e+02 0.0000e+00 0.0000e+00
  9000006  2    3    3    0    0 +3.6282520484e+01 -3.1368236291e+01 -3.2048498172e+01 7.0196109512e+01 4.0000000185e+01 0.0000e+00 0.0000e+00
  9000006  2    3    3    0    0 -3.6282520484e+01 +3.1368236291e+01 -2.6671942095e+01 6.7910087870e+01 3.9999999984e+01 0.0000e+00 0.0000e+00
      -11  1    5    5    0    0 +5.2425800451e+00 -1.6099340384e+00 -1.1522737755e+01 1.2761270255e+01 0.0000000000e+00 0.0000e+00 1.0000e+00
       13  1    4    4    0    0 +2.8380681407e-01 -2.3274982409e+01 -3.4880066245e+00 2.3536600066e+01 0.0000000000e+00 0.0000e+00 1.0000e+00
      -11  1    4    4    0    0 +3.5998713670e+01 -8.0932538818e+00 -2.8560491548e+01 4.6659509446e+01 0.0000000000e+00 0.0000e+00 1.0000e+00
       13  1    5    5    0    0 -4.1525100529e+01 +3.2978170329e+01 -1.5149204340e+01 5.5148817615e+01 0.0000000000e+00 0.0000e+00 1.0000e+00
<mgrwt>
<rscale>  0 0.12500093E+03</rscale>
<asrwt>0</asrwt>
<pdfrwt beam="1">  1       21 0.99232197E-02 0.12500093E+03</pdfrwt>
<pdfrwt beam="2">  1       21 0.24603330E-01 0.12500093E+03</pdfrwt>
<totfact> 0.12820402E+06</totfact>
</mgrwt>
</event>
<event>
 9      1 +9.5563000e+06 1.25000000e+02 7.81860800e-03 1.23506900e-01
       21 -1    0    0  502  501 +0.0000000000e+00 +0.0000000000e+00 +5.5399223146e+01 5.5399223146e+01 0.0000000000e+00 0.0000e+00 -1.0000e+00
       21 -1    0    0  501  502 -0.0000000000e+00 -0.0000000000e+00 -7.0510927659e+01 7.0510927659e+01 0.0000000000e+00 0.0000e+00 -1.0000e+00
       25  2    1    2    0    0 +3.5527136788e-15 +3.5527136788e-15 -1.5111704513e+01 1.2591015081e+02 1.2500000985e+02 0.0000e+00 0.0000e+00
  9000006  2    3    3    0    0 -2.1378915890e+01 -1.4000861133e+01 -4.8511071204e+01 6.7870510422e+01 3.9999999980e+01 0.0000e+00 0.0000e+00
  9000006  2    3    3    0    0 +2.1378915890e+01 +1.4000861133e+01 +3.3399366691e+01 5.8039640384e+01 4.0000000043e+01 0.0000e+00 0.0000e+00
      -11  1    5    5    0    0 +2.7234128662e+01 +2.0746035200e+01 +1.4585857389e+01 3.7213478422e+01 0.0000000000e+00 0.0000e+00 1.0000e+00
       13  1    4    4    0    0 +4.4715013776e+00 -7.1517126757e+00 +3.6990672314e+00 9.2100172176e+00 0.0000000000e+00 0.0000e+00 1.0000e+00
      -11  1    4    4    0    0 -2.5850417268e+01 -6.8491484572e+00 -5.2210138435e+01 5.8660493204e+01 0.0000000000e+00 0.0000e+00 1.0000e+00
       13  1    5    5    0    0 -5.8552127722e+00 -6.7451740671e+00 +1.8813509302e+01 2.0826161962e+01 0.0000000000e+00 0.0000e+00 1.0000e+00
<mgrwt>
<rscale>  0 0.12500001E+03</rscale>
<asrwt>0</asrwt>
<pdfrwt beam="1">  1       21 0.13849806E-01 0.12500001E+03</pdfrwt>
<pdfrwt beam="2">  1       21 0.17627732E-01 0.12500001E+03</pdfrwt>
<totfact> 0.13198417E+06</totfact>
</mgrwt>
</event>
<event>
 9      1 +9.5563000e+06 1.24991100e+02 7.81860800e-03 1.23508300e-01
       21 -1    0    0  502  501 +0.0000000000e+00 +0.0000000000e+00 +2.4724897152e+02 2.4724897152e+02 0.0000000000e+00 0.0000e+00 -1.0000e+00
       21 -1    0    0  501  502 -0.0000000000e+00 -0.0000000000e+00 -1.5796593679e+01 1.5796593679e+01 0.0000000000e+00 0.0000e+00 -1.0000e+00
       25  2    1    2    0    0 +0.0000000000e+00 +0.0000000000e+00 +2.3145237784e+02 2.6304556520e+02 1.2499106433e+02 0.0000e+00 0.0000e+00
  9000006  2    3    3    0    0 +3.8176697650e+01 -2.6514607092e+01 +1.4108597890e+02 1.5383672538e+02 3.9999999995e+01 0.0000e+00 0.0000e+00
  9000006  2    3    3    0    0 -3.8176697650e+01 +2.6514607092e+01 +9.0366398943e+01 1.0920883983e+02 4.0000000067e+01 0.0000e+00 0.0000e+00
      -11  1    4    4    0    0 +3.1340710620e+01 -3.5299475600e+01 +1.2919502926e+02 1.3754871393e+02 0.0000000000e+00 0.0000e+00 1.0000e+00
       13  1    4    4    0    0 +6.8359870296e+00 +8.7848685074e+00 +1.1890949642e+01 1.6288011442e+01 0.0000000000e+00 0.0000e+00 1.0000e+00
      -11  1    5    5    0    0 -5.2930978439e+00 +1.6468225125e+01 +6.2800127321e+01 6.5138892492e+01 0.0000000000e+00 0.0000e+00 1.0000e+00
       13  1    5    5    0    0 -3.2883599806e+01 +1.0046381968e+01 +2.7566271622e+01 4.4069947333e+01 0.0000000000e+00 0.0000e+00 1.0000e+00
<mgrwt>
<rscale>  0 0.12499106E+03</rscale>
<asrwt>0</asrwt>
<pdfrwt beam="1">  1       21 0.61812230E-01 0.12499106E+03</pdfrwt>
<pdfrwt beam="2">  1       21 0.39491492E-02 0.12499106E+03</pdfrwt>
<totfact> 0.97583101E+05</totfact>
</mgrwt>
</event>
<event>
 9      1 +9.5563000e+06 1.25009600e+02 7.81860800e-03 1.23505400e-01
       21 -1    0    0  502  501 +0.0000000000e+00 +0.0000000000e+00 +3.8735972690e+00 3.8735972690e+00 0.0000000000e+00 0.0000e+00 1.0000e+00
       21 -1    0    0  501  502 -0.0000000000e+00 -0.0000000000e+00 -1.0085847624e+03 1.0085847624e+03 0.0000000000e+00 0.0000e+00 1.0000e+00
       25  2    1    2    0    0 -1.7763568394e-15 +0.0000000000e+00 -1.0047111651e+03 1.0124583596e+03 1.2500961853e+02 0.0000e+00 0.0000e+00
  9000006  2    3    3    0    0 +1.5941428332e+01 -2.1170212265e+01 -8.2677704463e+02 8.2816821272e+02 4.0000000014e+01 0.0000e+00 0.0000e+00
  9000006  2    3    3    0    0 -1.5941428332e+01 +2.1170212265e+01 -1.7793412048e+02 1.8429014693e+02 4.0000000008e+01 0.0000e+00 0.0000e+00
      -11  1    5    5    0    0 -5.6570878394e+00 -5.3983483878e+00 -1.1432844423e+02 1.1459554079e+02 0.0000000000e+00 0.0000e+00 1.0000e+00
       13  1    4    4    0    0 +2.3339847231e+01 -6.2233950876e-01 -2.8643740103e+02 2.8738740488e+02 0.0000000000e+00 0.0000e+00 1.0000e+00
      -11  1    4    4    0    0 -7.3984188986e+00 -2.0547872756e+01 -5.4033964360e+02 5.4078080784e+02 0.0000000000e+00 0.0000e+00 1.0000e+00
       13  1    5    5    0    0 -1.0284340493e+01 +2.6568560653e+01 -6.3605676247e+01 6.9694606142e+01 0.0000000000e+00 0.0000e+00 1.0000e+00
<mgrwt>
<rscale>  0 0.12500962E+03</rscale>
<asrwt>0</asrwt>
<pdfrwt beam="1">  1       21 0.96839927E-03 0.12500962E+03</pdfrwt>
<pdfrwt beam="2">  1       21 0.25214620E+00 0.12500962E+03</pdfrwt>
<totfact> 0.26647121E+05</totfact>
</mgrwt>
</event>
<event>
 9      1 +9.5563000e+06 1.25003100e+02 7.81860800e-03 1.23506400e-01
       21 -1    0    0  502  501 +0.0000000000e+00 +0.0000000000e+00 +9.9184212890e+00 9.9184212890e+00 0.0000000000e+00 0.0000e+00 -1.0000e+00
       21 -1    0    0  501  502 -0.0000000000e+00 -0.0000000000e+00 -3.9385724495e+02 3.9385724495e+02 0.0000000000e+00 0.0000e+00 -1.0000e+00
       25  2    1    2    0    0 +8.8817841970e-16 +0.0000000000e+00 -3.8393882366e+02 4.0377566624e+02 1.2500307329e+02 0.0000e+00 0.0000e+00
  9000006  2    3    3    0    0 -7.3911966806e+00 +4.2373509292e+01 -1.2297026240e+02 1.3627849981e+02 3.9999999996e+01 0.0000e+00 0.0000e+00
  9000006  2    3    3    0    0 +7.3911966806e+00 -4.2373509292e+01 -2.6096856127e+02 2.6749716643e+02 3.9999999986e+01 0.0000e+00 0.0000e+00
      -11  1    5    5    0    0 +1.3253028557e+01 -4.8995342914e+00 -1.4025321929e+02 1.4096316442e+02 0.0000000000e+00 0.0000e+00 1.0000e+00
       13  1    4    4    0    0 +5.5727238815e+00 +2.4345710444e+00 +2.6380665410e-01 6.0870338902e+00 0.0000000000e+00 0.0000e+00 1.0000e+00
      -11  1    4    4    0    0 -1.2963920562e+01 +3.9938938247e+01 -1.2323406905e+02 1.3019146592e+02 0.0000000000e+00 0.0000e+00 1.0000e+00
       13  1    5    5    0    0 -5.8618318768e+00 -3.7473975000e+01 -1.2071534198e+02 1.2653400201e+02 0.0000000000e+00 0.0000e+00 1.0000e+00
<mgrwt>
<rscale>  0 0.12500307E+03</rscale>
<asrwt>0</asrwt>
<pdfrwt beam="1">  1       21 0.24796057E-02 0.12500307E+03</pdfrwt>
<pdfrwt beam="2">  1       21 0.98464297E-01 0.12500307E+03</pdfrwt>
<totfact> 0.74382182E+05</totfact>
</mgrwt>
</event>
<event>
 9      1 +9.5563000e+06 1.24994200e+02 7.81860800e-03 1.23507800e-01
       21 -1    0    0  502  501 +0.0000000000e+00 +0.0000000000e+00 +1.3025409682e+01 1.3025409682e+01 0.0000000000e+00 0.0000e+00 -1.0000e+00
       21 -1    0    0  501  502 -0.0000000000e+00 -0.0000000000e+00 -2.9986681550e+02 2.9986681550e+02 0.0000000000e+00 0.0000e+00 -1.0000e+00
       25  2    1    2    0    0 -7.1054273576e-15 -8.8817841970e-16 -2.8684140582e+02 3.1289222519e+02 1.2499420982e+02 0.0000e+00 0.0000e+00
  9000006  2    3    3    0    0 +4.1644679611e+01 +4.3788747671e+00 -8.4584428565e+01 1.0250843603e+02 4.0000000226e+01 0.0000e+00 0.0000e+00
  9000006  2    3    3    0    0 -4.1644679611e+01 -4.3788747671e+00 -2.0225697726e+02 2.1038378915e+02 4.0000000063e+01 0.0000e+00 0.0000e+00
      -11  1    5    5    0    0 -1.3539167497e+01 -4.5459322887e+00 -1.5305597521e+02 1.5372087075e+02 0.0000000000e+00 0.0000e+00 1.0000e+00
       13  1    4    4    0    0 +1.2205226212e+01 -1.7403421265e+01 -2.9469993344e+01 3.6336305898e+01 0.0000000000e+00 0.0000e+00 1.0000e+00
      -11  1    4    4    0    0 +2.9439453399e+01 +2.1782296032e+01 -5.5114435221e+01 6.6172130135e+01 0.0000000000e+00 0.0000e+00 1.0000e+00
       13  1    5    5    0    0 -2.8105512114e+01 +1.6705752168e-01 -4.9201002046e+01 5.6662918401e+01 0.0000000000e+00 0.0000e+00 1.0000e+00
<mgrwt>
<rscale>  0 0.12499421E+03</rscale>
<asrwt>0</asrwt>
<pdfrwt beam="1">  1       21 0.32563525E-02 0.12499421E+03</pdfrwt>
<pdfrwt beam="2">  1       21 0.74966702E-01 0.12499421E+03</pdfrwt>
<totfact> 0.88321611E+05</totfact>
</mgrwt>
</event>
<event>
 9      1 +9.5563000e+06 1.25000500e+02 7.81860800e-03 1.23506800e-01
       21 -1    0    0  502  501 +0.0000000000e+00 +0.0000000000e+00 +7.2486640097e+00 7.2486640097e+00 0.0000000000e+00 0.0000e+00 1.0000e+00
       21 -1    0    0  501  502 -0.0000000000e+00 -0.0000000000e+00 -5.3889686509e+02 5.3889686509e+02 0.0000000000e+00 0.0000e+00 1.0000e+00
       25  2    1    2    0    0 +0.0000000000e+00 +0.0000000000e+00 -5.3164820108e+02 5.4614552910e+02 1.2500051697e+02 0.0000e+00 0.0000e+00
  9000006  2    3    3    0    0 -4.6028893079e+01 -1.0396550413e+01 -3.0478920557e+02 3.1100354836e+02 4.0000000048e+01 0.0000e+00 0.0000e+00
  9000006  2    3    3    0    0 +4.6028893079e+01 +1.0396550413e+01 -2.2685899552e+02 2.3514198074e+02 4.0000000029e+01 0.0000e+00 0.0000e+00
      -11  1    4    4    0    0 -4.8157672431e+01 -1.4337115138e+01 -2.0336139507e+02 2.0947689918e+02 0.0000000000e+00 0.0000e+00 1.0000e+00
       13  1    4    4    0    0 +2.1287793524e+00 +3.9405647244e+00 -1.0142781050e+02 1.0152664918e+02 0.0000000000e+00 0.0000e+00 1.0000e+00
      -11  1    5    5    0    0 -5.9765084965e+00 +6.7654868881e+00 -2.2623892088e+01 2.4358385822e+01 0.0000000000e+00 0.0000e+00 1.0000e+00
       13  1    5    5    0    0 +5.2005401575e+01 +3.6310635251e+00 -2.0423510343e+02 2.1078359492e+02 0.0000000000e+00 0.0000e+00 1.0000e+00
<mgrwt>
<rscale>  0 0.12500052E+03</rscale>
<asrwt>0</asrwt>
<pdfrwt beam="1">  1       21 0.18121660E-02 0.12500052E+03</pdfrwt>
<pdfrwt beam="2">  1       21 0.13472421E+00 0.12500052E+03</pdfrwt>
<totfact> 0.57903593E+05</totfact>
</mgrwt>
</event>
<event>
 9      1 +9.5563000e+06 1.25031100e+02 7.81860800e-03 1.23502100e-01
       21 -1    0    0  502  501 +0.0000000000e+00 +0.0000000000e+00 +1.8195111422e+01 1.8195111422e+01 0.0000000000e+00 0.0000e+00 1.0000e+00
       21 -1    0    0  501  502 -0.0000000000e+00 -0.0000000000e+00 -2.1479359321e+02 2.1479359321e+02 0.0000000000e+00 0.0000e+00 1.0000e+00
       25  2    1    2    0    0 -1.7763568394e-15 +0.0000000000e+00 -1.9659848179e+02 2.3298870463e+02 1.2503108991e+02 0.0000e+00 0.0000e+00
  9000006  2    3    3    0    0 +8.6359970305e+00 -4.6952587079e+01 -1.0834587518e+02 1.2497181499e+02 3.9999999945e+01 0.0000e+00 0.0000e+00
  9000006  2    3    3    0    0 -8.6359970305e+00 +4.6952587079e+01 -8.8252606613e+01 1.0801688965e+02 3.9999999959e+01 0.0000e+00 0.0000e+00
      -11  1    5    5    0    0 +3.0737318384e+00 +8.3348384084e+00 -5.5041681520e+01 5.5753960068e+01 0.0000000000e+00 0.0000e+00 1.0000e+00
       13  1    4    4    0    0 +2.0488295328e+01 -2.8391370652e+01 -8.9072183562e+01 9.5706290585e+01 0.0000000000e+00 0.0000e+00 1.0000e+00
      -11  1    4    4    0    0 -1.1852298297e+01 -1.8561216427e+01 -1.9273691614e+01 2.9265524403e+01 0.0000000000e+00 0.0000e+00 1.0000e+00
       13  1    5    5    0    0 -1.1709728869e+01 +3.8617748670e+01 -3.3210925093e+01 5.2262929578e+01 0.0000000000e+00 0.0000e+00 1.0000e+00
<mgrwt>
<rscale>  0 0.12503109E+03</rscale>
<asrwt>0</asrwt>
<pdfrwt beam="1">  1       21 0.45487779E-02 0.12503109E+03</pdfrwt>
<pdfrwt beam="2">  1       21 0.53698398E-01 0.12503109E+03</pdfrwt>
<totfact> 0.10374954E+06</totfact>
</mgrwt>
</event>
<event>
 9      1 +9.5563000e+06 1.24999200e+02 7.81860800e-03 1.23507000e-01
       21 -1    0    0  502  501 +0.0000000000e+00 +0.0000000000e+00 +6.0083726154e+00 6.0083726154e+00 0.0000000000e+00 0.0000e+00 1.0000e+00
       21 -1    0    0  501  502 -0.0000000000e+00 -0.0000000000e+00 -6.5012642314e+02 6.5012642314e+02 0.0000000000e+00 0.0000e+00 1.0000e+00
       25  2    1    2    0    0 +0.0000000000e+00 +0.0000000000e+00 -6.4411805052e+02 6.5613479576e+02 1.2499922876e+02 0.0000e+00 0.0000e+00
  9000006  2    3    3    0    0 -2.6750358083e+01 +7.2820548795e+00 -1.1623016642e+02 1.2600818054e+02 3.9999999947e+01 0.0000e+00 0.0000e+00
  9000006  2    3    3    0    0 +2.6750358083e+01 -7.2820548795e+00 -5.2788788411e+02 5.3012661522e+02 3.9999999948e+01 0.0000e+00 0.0000e+00
      -11  1    4    4    0    0 -3.3798380508e+01 -3.5036113857e+00 -6.7053158538e+01 7.5171350178e+01 0.0000000000e+00 0.0000e+00 1.0000e+00
       13  1    4    4    0    0 +7.0480224243e+00 +1.0785666265e+01 -4.9177007880e+01 5.0836830358e+01 0.0000000000e+00 0.0000e+00 1.0000e+00
      -11  1    5    5    0    0 +2.2413185333e+01 -4.1399222036e+00 -1.1675779010e+02 1.1896163827e+02 0.0000000000e+00 0.0000e+00 1.0000e+00
       13  1    5    5    0    0 +4.3371727505e+00 -3.1421326760e+00 -4.1113009401e+02 4.1116497694e+02 0.0000000000e+00 0.0000e+00 1.0000e+00
<mgrwt>
<rscale>  0 0.12499923E+03</rscale>
<asrwt>0</asrwt>
<pdfrwt beam="1">  1       21 0.15020934E-02 0.12499923E+03</pdfrwt>
<pdfrwt beam="2">  1       21 0.16253158E+00 0.12499923E+03</pdfrwt>
<totfact> 0.48186333E+05</totfact>
</mgrwt>
</event>
<event>
 9      1 +9.5563000e+06 1.25000900e+02 7.81860800e-03 1.23506800e-01
       21 -1    0    0  502  501 +0.0000000000e+00 +0.0000000000e+00 +4.5077492154e+01 4.5077492154e+01 0.0000000000e+00 0.0000e+00 -1.0000e+00
       21 -1    0    0  501  502 -0.0000000000e+00 -0.0000000000e+00 -8.6657513071e+01 8.6657513071e+01 0.0000000000e+00 0.0000e+00 -1.0000e+00
       25  2    1    2    0    0 +0.0000000000e+00 +0.0000000000e+00 -4.1580020918e+01 1.3173500522e+02 1.2500085385e+02 0.0000e+00 0.0000e+00
  9000006  2    3    3    0    0 +2.5208257444e+00 -1.0222921243e+01 -7.0169781089e+01 8.1453427348e+01 3.9999999594e+01 0.0000e+00 0.0000e+00
  9000006  2    3    3    0    0 -2.5208257444e+00 +1.0222921243e+01 +2.8589760171e+01 5.0281577877e+01 4.0000000075e+01 0.0000e+00 0.0000e+00
      -11  1    4    4    0    0 -3.0835245542e+00 -2.4101740536e+01 -5.5070450357e+01 6.0192661704e+01 0.0000000000e+00 0.0000e+00 1.0000e+00
       13  1    4    4    0    0 +5.6043502986e+00 +1.3878819292e+01 -1.5099330732e+01 2.1260765644e+01 0.0000000000e+00 0.0000e+00 1.0000e+00
      -11  1    5    5    0    0 -1.8349006706e+00 +2.4552570771e+01 +9.4730306841e+00 2.6380559173e+01 0.0000000000e+00 0.0000e+00 1.0000e+00
       13  1    5    5    0    0 -6.8592507379e-01 -1.4329649528e+01 +1.9116729487e+01 2.3901018704e+01 0.0000000000e+00 0.0000e+00 1.0000e+00
<mgrwt>
<rscale>  0 0.12500085E+03</rscale>
<asrwt>0</asrwt>
<pdfrwt beam="1">  1       21 0.11269373E-01 0.12500085E+03</pdfrwt>
<pdfrwt beam="2">  1       21 0.21664378E-01 0.12500085E+03</pdfrwt>
<totfact> 0.13015187E+06</totfact>
</mgrwt>
</event>
<event>
 9      1 +9.5563000e+06 1.25001100e+02 7.81860800e-03 1.23506800e-01
       21 -1    0    0  502  501 +0.0000000000e+00 +0.0000000000e+00 +1.7961427630e+02 1.7961427630e+02 0.0000000000e+00 0.0000e+00 1.0000e+00
       21 -1    0    0  501  502 -0.0000000000e+00 -0.0000000000e+00 -2.1748371700e+01 2.1748371700e+01 0.0000000000e+00 0.0000e+00 1.0000e+00
       25  2    1    2    0    0 -4.4408920985e-16 +0.0000000000e+00 +1.5786590460e+02 2.0136264800e+02 1.2500108869e+02 0.0000e+00 0.0000e+00
  9000006  2    3    3    0    0 +7.7449582366e-01 +2.3430775497e+00 +1.5619221853e+02 1.6125166344e+02 3.9999999728e+01 0.0000e+00 0.0000e+00
  9000006  2    3    3    0    0 -7.7449582366e-01 -2.3430775497e+00 +1.6736860721e+00 4.0110984558e+01 4.0000000012e+01 0.0000e+00 0.0000e+00
      -11  1    4    4    0    0 +1.9068421821e+01 -5.7574940095e+00 +7.0950280989e+01 7.3693254918e+01 0.0000000000e+00 0.0000e+00 1.0000e+00
       13  1    4    4    0    0 -1.8293925997e+01 +8.1005715592e+00 +8.5241937541e+01 8.7558408527e+01 0.0000000000e+00 0.0000e+00 1.0000e+00
      -11  1    5    5    0    0 +3.7222214874e+00 -8.4932076524e+00 -1.7320054646e+01 1.9646215971e+01 0.0000000000e+00 0.0000e+00 1.0000e+00
       13  1    5    5    0    0 -4.4967173111e+00 +6.1501301027e+00 +1.8993740718e+01 2.0464768587e+01 0.0000000000e+00 0.0000e+00 1.0000e+00
<mgrwt>
<rscale>  0 0.12500109E+03</rscale>
<asrwt>0</asrwt>
<pdfrwt beam="1">  1       21 0.44903565E-01 0.12500109E+03</pdfrwt>
<pdfrwt beam="2">  1       21 0.54370935E-02 0.12500109E+03</pdfrwt>
<totfact> 0.11109873E+06</totfact>
</mgrwt>
</event>
<event>
 9      1 +9.5563000e+06 1.25004300e+02 7.81860800e-03 1.23506300e-01
       21 -1    0    0  502  501 +0.0000000000e+00 +0.0000000000e+00 +1.7427279420e+02 1.7427279420e+02 0.0000000000e+00 0.0000e+00 1.0000e+00
       21 -1    0    0  501  502 -0.0000000000e+00 -0.0000000000e+00 -2.2416115182e+01 2.2416115182e+01 0.0000000000e+00 0.0000e+00 1.0000e+00
       25  2    1    2    0    0 +0.0000000000e+00 -3.5527136788e-15 +1.5185667902e+02 1.9668890938e+02 1.2500430437e+02 0.0000e+00 0.0000e+00
  9000006  2    3    3    0    0 +4.4515319369e+01 +1.7593505014e+01 +8.2097806073e+01 1.0310768565e+02 4.0000000012e+01 0.0000e+00 0.0000e+00
  9000006  2    3    3    0    0 -4.4515319369e+01 -1.7593505014e+01 +6.9758872945e+01 9.3581223731e+01 4.0000000041e+01 0.0000e+00 0.0000e+00
      -11  1    5    5    0    0 -2.5721269104e-01 -1.5790167849e+01 +3.0706093855e+01 3.4529114656e+01 0.0000000000e+00 0.0000e+00 1.0000e+00
       13  1    4    4    0    0 +4.6228311185e+01 +2.4262187688e+01 +8.0647398631e+01 9.6071397473e+01 0.0000000000e+00 0.0000e+00 1.0000e+00
      -11  1    4    4    0    0 -1.7129918167e+00 -6.6686826737e+00 +1.4504074422e+00 7.0362881774e+00 0.0000000000e+00 0.0000e+00 1.0000e+00
       13  1    5    5    0    0 -4.4258106678e+01 -1.8033371655e+00 +3.9052779089e+01 5.9052109075e+01 0.0000000000e+00 0.0000e+00 1.0000e+00
<mgrwt>
<rscale>  0 0.12500430E+03</rscale>
<asrwt>0</asrwt>
<pdfrwt beam="1">  1       21 0.43568195E-01 0.12500430E+03</pdfrwt>
<pdfrwt beam="2">  1       21 0.56040293E-02 0.12500430E+03</pdfrwt>
<totfact> 0.11223062E+06</totfact>
</mgrwt>
</event>
<event>
 9      1 +9.5563000e+06 1.24968600e+02 7.81860800e-03 1.23511800e-01
       21 -1    0    0  502  501 +0.0000000000e+00 +0.0000000000e+00 +4.0462243708e+01 4.0462243708e+01 0.0000000000e+00 0.0000e+00 1.0000e+00
       21 -1    0    0  501  502 -0.0000000000e+00 -0.0000000000e+00 -9.6492181605e+01 9.6492181605e+01 0.0000000000e+00 0.0000e+00 1.0000e+00
       25  2    1    2    0    0 +7.1054273576e-15 -8.8817841970e-16 -5.6029937897e+01 1.3695442531e+02 1.2496863875e+02 0.0000e+00 0.0000e+00
  9000006  2    3    3    0    0 +4.7776961394e+01 -1.9453836660e+00 -3.2647393086e+01 7.0372401028e+01 3.9999999919e+01 0.0000e+00 0.0000e+00
  9000006  2    3    3    0    0 -4.7776961394e+01 +1.9453836660e+00 -2.3382544811e+01 6.6582024284e+01 3.9999999978e+01 0.0000e+00 0.0000e+00
      -11  1    4    4    0    0 -4.8258703451e+00 -6.6083707409e+00 +1.9242025781e-01 8.1851459359e+00 0.0000000000e+00 0.0000e+00 1.0000e+00
       13  1    4    4    0    0 +5.2602831739e+01 +4.6629870749e+00 -3.2839813344e+01 6.2187255092e+01 0.0000000000e+00 0.0000e+00 1.0000e+00
      -11  1    5    5    0    0 -1.5727879261e+01 -5.1088933905e-01 -2.9896987037e+01 3.3785455863e+01 0.0000000000e+00 0.0000e+00 1.0000e+00
       13  1    5    5    0    0 -3.2049082133e+01 +2.4562730051e+00 +6.5144422268e+00 3.2796568421e+01 0.0000000000e+00 0.0000e+00 1.0000e+00
<mgrwt>
<rscale>  0 0.12496864E+03</rscale>
<asrwt>0</asrwt>
<pdfrwt beam="1">  1       21 0.10115561E-01 0.12496864E+03</pdfrwt>
<pdfrwt beam="2">  1       21 0.24123045E-01 0.12496864E+03</pdfrwt>
<totfact> 0.12866112E+06</totfact>
</mgrwt>
</event>
<event>
 8      1 +9.5563000e+06 1.24998700e+02 7.81860800e-03 1.23507100e-01
       21 -1    0    0  502  501 +0.0000000000e+00 +0.0000000000e+00 +5.7514388279e+01 5.7514388279e+01 0.0000000000e+00 0.0000e+00 1.0000e+00
       21 -1    0    0  501  502 -0.0000000000e+00 -0.0000000000e+00 -6.7916334083e+01 6.7916334083e+01 0.0000000000e+00 0.0000e+00 1.0000e+00
       25  2    1    2    0    0 +0.0000000000e+00 -1.7763568394e-15 -1.0401945805e+01 1.2543072236e+02 1.2499866254e+02 0.0000e+00 0.0000e+00
  9000006  2    3    3    0    0 +4.8002202133e+01 -7.1130099721e-01 -6.4089560189e+00 6.2815540061e+01 3.9999999965e+01 0.0000e+00 0.0000e+00
      -11  1    4    4    0    0 +4.9618923270e+01 -5.3199257489e+00 +5.2463529775e+00 5.0178315795e+01 0.0000000000e+00 0.0000e+00 1.0000e+00
       13  1    4    4    0    0 -1.6167211377e+00 +4.6086247517e+00 -1.1655308996e+01 1.2637224266e+01 0.0000000000e+00 0.0000e+00 1.0000e+00
      -11  1    3    3    0    0 -3.7876227289e+01 +1.8280865811e+01 -4.7359091410e+00 4.2322895504e+01 0.0000000000e+00 0.0000e+00 1.0000e+00
       13  1    3    3    0    0 -1.0125974844e+01 -1.7569564814e+01 +7.4291935521e-01 2.0292286797e+01 0.0000000000e+00 0.0000e+00 1.0000e+00
<mgrwt>
<rscale>  0 0.12499866E+03</rscale>
<asrwt>0</asrwt>
<pdfrwt beam="1">  1       21 0.14378597E-01 0.12499866E+03</pdfrwt>
<pdfrwt beam="2">  1       21 0.16979083E-01 0.12499866E+03</pdfrwt>
<totfact> 0.13213770E+06</totfact>
</mgrwt>
</event>
<event>
 9      1 +9.5563000e+06 1.24999600e+02 7.81860800e-03 1.23507000e-01
       21 -1    0    0  502  501 +0.0000000000e+00 +0.0000000000e+00 +4.9515977334e+02 4.9515977334e+02 0.0000000000e+00 0.0000e+00 1.0000e+00
       21 -1    0    0  501  502 -0.0000000000e+00 -0.0000000000e+00 -7.8888159140e+00 7.8888159140e+00 0.0000000000e+00 0.0000e+00 1.0000e+00
       25  2    1    2    0    0 -7.1054273576e-15 +0.0000000000e+00 +4.8727095743e+02 5.0304858925e+02 1.2499958880e+02 0.0000e+00 0.0000e+00
  9000006  2    3    3    0    0 +2.8142184542e+01 +3.5107944877e+01 +3.1117759594e+02 3.1694801885e+02 4.0000001155e+01 0.0000e+00 0.0000e+00
  9000006  2    3    3    0    0 -2.8142184542e+01 -3.5107944877e+01 +1.7609336149e+02 1.8610057041e+02 4.0000000022e+01 0.0000e+00 0.0000e+00
      -11  1    5    5    0    0 -2.9582619039e+01 -2.8932718020e+01 +1.7479751054e+02 1.7962851448e+02 0.0000000000e+00 0.0000e+00 1.0000e+00
       13  1    4    4    0    0 -6.5488354639e+00 -3.2036431821e+00 +2.1678660204e+01 2.2871704873e+01 0.0000000000e+00 0.0000e+00 1.0000e+00
      -11  1    4    4    0    0 +3.4691020006e+01 +3.8311588059e+01 +2.8949893574e+02 2.9407631398e+02 0.0000000000e+00 0.0000e+00 1.0000e+00
       13  1    5    5    0    0 +1.4404344970e+00 -6.1752268574e+00 +1.2958509430e+00 6.4720559289e+00 0.0000000000e+00 0.0000e+00 1.0000e+00
<mgrwt>
<rscale>  0 0.12499959E+03</rscale>
<asrwt>0</asrwt>
<pdfrwt beam="1">  1       21 0.12378984E+00 0.12499959E+03</pdfrwt>
<pdfrwt beam="2">  1       21 0.19722057E-02 0.12499959E+03</pdfrwt>
<totfact> 0.62337762E+05</totfact>
</mgrwt>
</event>
<event>
 8      1 +9.5563000e+06 1.24998700e+02 7.81860800e-03 1.23507100e-01
       21 -1    0    0  502  501 +0.0000000000e+00 +0.0000000000e+00 +1.4312575498e+01 1.4312575498e+01 0.0000000000e+00 0.0000e+00 -1.0000e+00
       21 -1    0    0  501  502 -0.0000000000e+00 -0.0000000000e+00 -2.7291847221e+02 2.7291847221e+02 0.0000000000e+00 0.0000e+00 -1.0000e+00
       25  2    1    2    0    0 +0.0000000000e+00 +0.0000000000e+00 -2.5860589671e+02 2.8723104771e+02 1.2499865981e+02 0.0000e+00 0.0000e+00
  9000006  2    3    3    0    0 -1.0467396891e+01 +4.5625756496e+01 -1.5393316023e+02 1.6579111525e+02 4.0000000284e+01 0.0000e+00 0.0000e+00
      -11  1    4    4    0    0 +2.1703382846e+00 +4.1679490238e+01 -7.5675909631e+01 8.6421835049e+01 0.0000000000e+00 0.0000e+00 1.0000e+00
       13  1    3    3    0    0 -2.9506884812e+00 -1.8395628591e+01 -8.0519589925e+01 8.2646899975e+01 0.0000000000e+00 0.0000e+00 1.0000e+00
      -11  1    3    3    0    0 +1.3418085372e+01 -2.7230127905e+01 -2.4153146553e+01 3.8793032483e+01 0.0000000000e+00 0.0000e+00 1.0000e+00
       13  1    4    4    0    0 -1.2637735176e+01 +3.9462662585e+00 -7.8257250600e+01 7.9369280198e+01 0.0000000000e+00 0.0000e+00 1.0000e+00
<mgrwt>
<rscale>  0 0.12499866E+03</rscale>
<asrwt>0</asrwt>
<pdfrwt beam="1">  1       21 0.35781440E-02 0.12499866E+03</pdfrwt>
<pdfrwt beam="2">  1       21 0.68229616E-01 0.12499866E+03</pdfrwt>
<totfact> 0.92905947E+05</totfact>
</mgrwt>
</event>
<event>
 9      1 +9.5563000e+06 1.24989700e+02 7.81860800e-03 1.23508500e-01
       21 -1    0    0  502  501 +0.0000000000e+00 +0.0000000000e+00 +2.9149696880e+00 2.9149696880e+00 0.0000000000e+00 0.0000e+00 -1.0000e+00
       21 -1    0    0  501  502 -0.0000000000e+00 -0.0000000000e+00 -1.3398443663e+03 1.3398443663e+03 0.0000000000e+00 0.0000e+00 -1.0000e+00
       25  2    1    2    0    0 +0.0000000000e+00 -7.1054273576e-15 -1.3369293966e+03 1.3427593359e+03 1.2498969100e+02 0.0000e+00 0.0000e+00
  9000006  2    3    3    0    0 -2.8878988700e+01 +3.6544094802e+01 -7.9381201705e+02 7.9618275870e+02 3.9999999935e+01 0.0000e+00 0.0000e+00
  9000006  2    3    3    0    0 +2.8878988700e+01 -3.6544094802e+01 -5.4311737953e+02 5.4657657725e+02 3.9999999967e+01 0.0000e+00 0.0000e+00
      -11  1    4    4    0    0 -2.1661743630e+01 +4.5201706335e+01 -6.4938521842e+02 6.5131681023e+02 0.0000000000e+00 0.0000e+00 1.0000e+00
       13  1    4    4    0    0 -7.2172450700e+00 -8.6576115333e+00 -1.4442679863e+02 1.4486594847e+02 0.0000000000e+00 0.0000e+00 1.0000e+00
      -11  1    5    5    0    0 +2.2522572543e+01 -1.3180525184e+01 -4.3495959967e+02 4.3574171922e+02 0.0000000000e+00 0.0000e+00 1.0000e+00
       13  1    5    5    0    0 +6.3564161569e+00 -2.3363569618e+01 -1.0815777985e+02 1.1083485803e+02 0.0000000000e+00 0.0000e+00 1.0000e+00
<mgrwt>
<rscale>  0 0.12498969E+03</rscale>
<asrwt>0</asrwt>
<pdfrwt beam="1">  1       21 0.72874263E-03 0.12498969E+03</pdfrwt>
<pdfrwt beam="2">  1       21 0.33496099E+00 0.12498969E+03</pdfrwt>
<totfact> 0.14202588E+05</totfact>
</mgrwt>
</event>
<event>
 9      1 +9.5563000e+06 1.24995300e+02 7.81860800e-03 1.23507700e-01
       21 -1    0    0  502  501 +0.0000000000e+00 +0.0000000000e+00 +6.5478636423e+02 6.5478636423e+02 0.0000000000e+00 0.0000e+00 1.0000e+00
       21 -1    0    0  501  502 -0.0000000000e+00 -0.0000000000e+00 -5.9652359484e+00 5.9652359484e+00 0.0000000000e+00 0.0000e+00 1.0000e+00
       25  2    1    2    0    0 +0.0000000000e+00 -3.5527136788e-15 +6.4882112828e+02 6.6075160018e+02 1.2499528245e+02 0.0000e+00 0.0000e+00
  9000006  2    3    3    0    0 +3.9709435814e+01 -9.9248072074e+00 +1.9166303964e+02 2.0002515302e+02 3.9999999835e+01 0.0000e+00 0.0000e+00
  9000006  2    3    3    0    0 -3.9709435814e+01 +9.9248072074e+00 +4.5715808864e+02 4.6072644716e+02 4.0000000098e+01 0.0000e+00 0.0000e+00
      -11  1    4    4    0    0 +4.4031743566e+01 -6.8881086287e-01 +1.7528390057e+02 1.8073105627e+02 0.0000000000e+00 0.0000e+00 1.0000e+00
       13  1    4    4    0    0 -4.3223077522e+00 -9.2359963445e+00 +1.6379139072e+01 1.9294096753e+01 0.0000000000e+00 0.0000e+00 1.0000e+00
      -11  1    5    5    0    0 -2.0451865526e+01 -6.9792910776e+00 +3.4510033183e+02 3.4577626920e+02 0.0000000000e+00 0.0000e+00 1.0000e+00
       13  1    5    5    0    0 -1.9257570288e+01 +1.6904098285e+01 +1.1205775681e+02 1.1495017796e+02 0.0000000000e+00 0.0000e+00 1.0000e+00
<mgrwt>
<rscale>  0 0.12499528E+03</rscale>
<asrwt>0</asrwt>
<pdfrwt beam="1">  1       21 0.16369635E+00 0.12499528E+03</pdfrwt>
<pdfrwt beam="2">  1       21 0.14913112E-02 0.12499528E+03</pdfrwt>
<totfact> 0.47825484E+05</totfact>
</mgrwt>
</event>
<event>
 9      1 +9.5563000e+06 1.25000900e+02 7.81860800e-03 1.23506800e-01
       21 -1    0    0  502  501 +0.0000000000e+00 +0.0000000000e+00 +8.3400023076e+01 8.3400023076e+01 0.0000000000e+00 0.0000e+00 -1.0000e+00
       21 -1    0    0  501  502 -0.0000000000e+00 -0.0000000000e+00 -4.6838163664e+01 4.6838163664e+01 0.0000000000e+00 0.0000e+00 -1.0000e+00
       25  2    1    2    0    0 -7.1054273576e-15 +7.1054273576e-15 +3.6561859412e+01 1.3023818674e+02 1.2500086288e+02 0.0000e+00 0.0000e+00
  9000006  2    3    3    0    0 +3.2939193861e+01 +3.4929229204e+01 +1.7110266395e+01 6.4790452730e+01 4.0000000049e+01 0.0000e+00 0.0000e+00
  9000006  2    3    3    0    0 -3.2939193861e+01 -3.4929229204e+01 +1.9451593017e+01 6.5447734010e+01 3.9999998390e+01 0.0000e+00 0.0000e+00
      -11  1    5    5    0    0 -1.9033290906e+01 -4.1238702982e+00 -8.8245139443e+00 2.1380938129e+01 0.0000000000e+00 0.0000e+00 1.0000e+00
       13  1    4    4    0    0 +4.0815597940e+00 +2.8106666094e+01 +2.0380881731e+01 3.4957461999e+01 0.0000000000e+00 0.0000e+00 1.0000e+00
      -11  1    4    4    0    0 +2.8857634067e+01 +6.8225631099e+00 -3.2706153353e+00 2.9832990732e+01 0.0000000000e+00 0.0000e+00 1.0000e+00
       13  1    5    5    0    0 -1.3905902955e+01 -3.0805358906e+01 +2.8276106961e+01 4.4066795881e+01 0.0000000000e+00 0.0000e+00 1.0000e+00
<mgrwt>
<rscale>  0 0.12500086E+03</rscale>
<asrwt>0</asrwt>
<pdfrwt beam="1">  1       21 0.20850006E-01 0.12500086E+03</pdfrwt>
<pdfrwt beam="2">  1       21 0.11709541E-01 0.12500086E+03</pdfrwt>
<totfact> 0.13061883E+06</totfact>
</mgrwt>
</event>
<event>
 9      1 +9.5563000e+06 1.25001000e+02 7.81860800e-03 1.23506800e-01
       21 -1    0    0  502  501 +0.0000000000e+00 +0.0000000000e+00 +5.3456195742e+00 5.3456195742e+00 0.0000000000e+00 0.0000e+00 1.0000e+00
       21 -1    0    0  501  502 -0.0000000000e+00 -0.0000000000e+00 -7.3075014470e+02 7.3075014470e+02 0.0000000000e+00 0.0000e+00 1.0000e+00
       25  2    1    2    0    0 +0.0000000000e+00 +0.0000000000e+00 -7.2540452513e+02 7.3609576427e+02 1.2500099643e+02 0.0000e+00 0.0000e+00
  9000006  2    3    3    0    0 +9.3818330506e+00 -1.4639271148e+01 -6.2631603813e+02 6.2783286523e+02 3.9999999863e+01 0.0000e+00 0.0000e+00
  9000006  2    3    3    0    0 -9.3818330506e+00 +1.4639271148e+01 -9.9088486993e+01 1.0826289904e+02 4.0000000048e+01 0.0000e+00 0.0000e+00
      -11  1    5    5    0    0 +2.3482395992e+00 +9.3026944848e+00 -9.3870616421e+01 9.4359668191e+01 0.0000000000e+00 0.0000e+00 1.0000e+00
       13  1    4    4    0    0 -9.2505856835e+00 -1.6871702630e+01 -4.7012000585e+02 4.7051359979e+02 0.0000000000e+00 0.0000e+00 1.0000e+00
      -11  1    4    4    0    0 +1.8632418734e+01 +2.2324314822e+00 -1.5619603228e+02 1.5731926544e+02 0.0000000000e+00 0.0000e+00 1.0000e+00
       13  1    5    5    0    0 -1.1730072650e+01 +5.3365766633e+00 -5.2178705720e+00 1.3903230853e+01 0.0000000000e+00 0.0000e+00 1.0000e+00
<mgrwt>
<rscale>  0 0.12500100E+03</rscale>
<asrwt>0</asrwt>
<pdfrwt beam="1">  1       21 0.13364049E-02 0.12500100E+03</pdfrwt>
<pdfrwt beam="2">  1       21 0.18268754E+00 0.12500100E+03</pdfrwt>
<totfact> 0.42254975E+05</totfact>
</mgrwt>
</event>
<event>
 9      1 +9.5563000e+06 1.25000400e+02 7.81860800e-03 1.23506900e-01
       21 -1    0    0  502  501 +0.0000000000e+00 +0.0000000000e+00 +4.0314009124e+02 4.0314009124e+02 0.0000000000e+00 0.0000e+00 -1.0000e+00
       21 -1    0    0  501  502 -0.0000000000e+00 -0.0000000000e+00 -9.6896144368e+00 9.6896144368e+00 0.0000000000e+00 0.0000e+00 -1.0000e+00
       25  2    1    2    0    0 -7.1054273576e-15 -1.7763568394e-15 +3.9345047680e+02 4.1282970567e+02 1.2500035277e+02 0.0000e+00 0.0000e+00
  9000006  2    3    3    0    0 +4.6601192529e+01 +1.1300860696e+01 +2.0539513846e+02 2.1467776666e+02 3.9999999951e+01 0.0000e+00 0.0000e+00
  9000006  2    3    3    0    0 -4.6601192529e+01 -1.1300860696e+01 +1.8805533834e+02 1.9815193901e+02 4.0000000756e+01 0.0000e+00 0.0000e+00
      -11  1    5    5    0    0 -5.0974347694e+01 -1.5221782784e+01 +1.4048279938e+02 1.5021818703e+02 0.0000000000e+00 0.0000e+00 1.0000e+00
       13  1    4    4    0    0 +2.7227635632e+01 +9.6244726862e+00 +1.8190461335e+02 1.8418268912e+02 0.0000000000e+00 0.0000e+00 1.0000e+00
      -11  1    4    4    0    0 +1.9373556897e+01 +1.6763880096e+00 +2.3490525118e+01 3.0495077535e+01 0.0000000000e+00 0.0000e+00 1.0000e+00
       13  1    5    5    0    0 +4.3731551653e+00 +3.9209220877e+00 +4.7572538961e+01 4.7933751985e+01 0.0000000000e+00 0.0000e+00 1.0000e+00
<mgrwt>
<rscale>  0 0.12500035E+03</rscale>
<asrwt>0</asrwt>
<pdfrwt beam="1">  1       21 0.10078497E+00 0.12500035E+03</pdfrwt>
<pdfrwt beam="2">  1       21 0.24224050E-02 0.12500035E+03</pdfrwt>
<totfact> 0.73164134E+05</totfact>
</mgrwt>
</event>
<event>
 9      1 +9.5563000e+06 1.24999600e+02 7.81860800e-03 1.23507000e-01
       21 -1    0    0  502  501 +0.0000000000e+00 +0.0000000000e+00 +1.7701676495e+02 1.7701676495e+02 0.0000000000e+00 0.0000e+00 1.0000e+00
       21 -1    0    0  501  502 -0.0000000000e+00 -0.0000000000e+00 -2.2066971877e+01 2.2066971877e+01 0.0000000000e+00 0.0000e+00 1.0000e+00
       25  2    1    2    0    0 +0.0000000000e+00 -3.5527136788e-15 +1.5494979308e+02 1.9908373683e+02 1.2499958358e+02 0.0000e+00 0.0000e+00
  9000006  2    3    3    0    0 +2.7804528832e+01 +2.9791797358e+01 +1.1794204243e+02 1.3103804179e+02 4.0000000133e+01 0.0000e+00 0.0000e+00
  9000006  2    3    3    0    0 -2.7804528832e+01 -2.9791797358e+01 +3.7007750642e+01 6.8045695035e+01 3.9999999898e+01 0.0000e+00 0.0000e+00
      -11  1    5    5    0    0 +6.9817689506e+00 -1.3372162295e+01 +6.2412292554e-01 1.5097991640e+01 0.0000000000e+00 0.0000e+00 1.0000e+00
       13  1    4    4    0    0 -8.1283412225e+00 +1.6391129158e+01 +3.0689793838e+01 3.5729574471e+01 0.0000000000e+00 0.0000e+00 1.0000e+00
      -11  1    4    4    0    0 +3.5932870054e+01 +1.3400668201e+01 +8.7252248596e+01 9.5308467324e+01 0.0000000000e+00 0.0000e+00 1.0000e+00
       13  1    5    5    0    0 -3.4786297782e+01 -1.6419635063e+01 +3.6383627716e+01 5.2947703395e+01 0.0000000000e+00 0.0000e+00 1.0000e+00
<mgrwt>
<rscale>  0 0.12499958E+03</rscale>
<asrwt>0</asrwt>
<pdfrwt beam="1">  1       21 0.44254187E-01 0.12499958E+03</pdfrwt>
<pdfrwt beam="2">  1       21 0.55167435E-02 0.12499958E+03</pdfrwt>
<totfact> 0.11165733E+06</totfact>
</mgrwt>
</event>
<event>
 9      1 +9.5563000e+06 1.25000700e+02 7.81860800e-03 1.23506800e-01
       21 -1    0    0  502  501 +0.0000000000e+00 +0.0000000000e+00 +8.6477536028e+01 8.6477536028e+01 0.0000000000e+00 0.0000e+00 -1.0000e+00
       21 -1    0    0  501  502 -0.0000000000e+00 -0.0000000000e+00 -4.5171202669e+01 4.5171202669e+01 0.0000000000e+00 0.0000e+00 -1.0000e+00
       25  2    1    2    0    0 +0.0000000000e+00 +0.0000000000e+00 +4.1306333358e+01 1.3164873870e+02 1.2500070890e+02 0.0000e+00 0.0000e+00
  9000006  2    3    3    0    0 -5.3756615640e+00 +3.0491376242e+01 +5.9316244014e+01 7.7955362643e+01 3.9999999980e+01 0.0000e+00 0.0000e+00
  9000006  2    3    3    0    0 +5.3756615640e+00 -3.0491376242e+01 -1.8009910655e+01 5.3693376055e+01 3.9999999849e+01 0.0000e+00 0.0000e+00
      -11  1    4    4    0    0 +2.2675235864e+00 +2.8082078904e+01 +1.3136764844e+01 3.1085678525e+01 0.0000000000e+00 0.0000e+00 1.0000e+00
       13  1    4    4    0    0 -7.6431851503e+00 +2.4092973382e+00 +4.6179479170e+01 4.6869684118e+01 0.0000000000e+00 0.0000e+00 1.0000e+00
      -11  1    5    5    0    0 +5.9816530177e+00 +2.5259288503e+00 +8.9540015708e+00 1.1060498791e+01 0.0000000000e+00 0.0000e+00 1.0000e+00
       13  1    5    5    0    0 -6.0599145369e-01 -3.3017305093e+01 -2.6963912226e+01 4.2632877263e+01 0.0000000000e+00 0.0000e+00 1.0000e+00
<mgrwt>
<rscale>  0 0.12500071E+03</rscale>
<asrwt>0</asrwt>
<pdfrwt beam="1">  1       21 0.21619384E-01 0.12500071E+03</pdfrwt>
<pdfrwt beam="2">  1       21 0.11292801E-01 0.12500071E+03</pdfrwt>
<totfact> 0.13017918E+06</totfact>
</mgrwt>
</event>
<event>
 9      1 +9.5563000e+06 1.25008000e+02 7.81860800e-03 1.23505700e-01
       21 -1    0    0  502  501 +0.0000000000e+00 +0.0000000000e+00 +8.3358056665e+00 8.3358056665e+00 0.0000000000e+00 0.0000e+00 1.0000e+00
       21 -1    0    0  501  502 -0.0000000000e+00 -0.0000000000e+00 -4.6867086147e+02 4.6867086147e+02 0.0000000000e+00 0.0000e+00 1.0000e+00
       25  2    1    2    0    0 +0.0000000000e+00 -7.1054273576e-15 -4.6033505580e+02 4.7700666713e+02 1.2500798731e+02 0.0000e+00 0.0000e+00
  9000006  2    3    3    0    0 +1.6412716719e+01 -4.2731580059e+01 -1.7468927458e+02 1.8496407174e+02 3.9999999731e+01 0.0000e+00 0.0000e+00
  9000006  2    3    3    0    0 -1.6412716719e+01 +4.2731580059e+01 -2.8564578122e+02 2.9204259539e+02 3.9999999851e+01 0.0000e+00 0.0000e+00
      -11  1    4    4    0    0 +1.0196135279e+00 -1.4003623397e+01 -1.2339444326e+02 1.2419069895e+02 0.0000000000e+00 0.0000e+00 1.0000e+00
       13  1    4    4    0    0 +1.5393103191e+01 -2.8727956662e+01 -5.1294831322e+01 6.0773372789e+01 0.0000000000e+00 0.0000e+00 1.0000e+00
      -11  1    5    5    0    0 -7.5644913803e+00 +9.6283958553e+00 -1.5599496168e+01 1.9831082100e+01 0.0000000000e+00 0.0000e+00 1.0000e+00
       13  1    5    5    0    0 -8.8482253386e+00 +3.3103184204e+01 -2.7004628505e+02 2.7221151329e+02 0.0000000000e+00 0.0000e+00 1.0000e+00
<mgrwt>
<rscale>  0 0.12500799E+03</rscale>
<asrwt>0</asrwt>
<pdfrwt beam="1">  1       21 0.20839515E-02 0.12500799E+03</pdfrwt>
<pdfrwt beam="2">  1       21 0.11716771E+00 0.12500799E+03</pdfrwt>
<totfact> 0.65226974E+05</totfact>
</mgrwt>
</event>
<event>
 9      1 +9.5563000e+06 1.24950500e+02 7.81860800e-03 1.23514700e-01
       21 -1    0    0  502  501 +0.0000000000e+00 +0.0000000000e+00 +1.1009931181e+01 1.1009931181e+01 0.0000000000e+00 0.0000e+00 1.0000e+00
       21 -1    0    0  501  502 -0.0000000000e+00 -0.0000000000e+00 -3.5451214673e+02 3.5451214673e+02 0.0000000000e+00 0.0000e+00 1.0000e+00
       25  2    1    2    0    0 +0.0000000000e+00 +0.0000000000e+00 -3.4350221555e+02 3.6552207791e+02 1.2495045959e+02 0.0000e+00 0.0000e+00
  9000006  2    3    3    0    0 -5.9208487991e+00 +3.8509652428e+01 -8.9784019958e+01 1.0573183067e+02 3.9999999967e+01 0.0000e+00 0.0000e+00
  9000006  2    3    3    0    0 +5.9208487991e+00 -3.8509652428e+01 -2.5371819559e+02 2.5979024723e+02 4.0000000050e+01 0.0000e+00 0.0000e+00
      -11  1    4    4    0    0 -1.9972945299e+01 +2.9653651664e+01 -7.6573807114e+01 8.4509203859e+01 0.0000000000e+00 0.0000e+00 1.0000e+00
       13  1    4    4    0    0 +1.4052096500e+01 +8.8560007641e+00 -1.3210212843e+01 2.1222626815e+01 0.0000000000e+00 0.0000e+00 1.0000e+00
      -11  1    5    5    0    0 +1.8858390073e+01 -3.8348242861e+01 -1.8586957898e+02 1.9071897388e+02 0.0000000000e+00 0.0000e+00 1.0000e+00
       13  1    5    5    0    0 -1.2937541274e+01 -1.6140956745e-01 -6.7848616611e+01 6.9071273358e+01 0.0000000000e+00 0.0000e+00 1.0000e+00
<mgrwt>
<rscale>  0 0.12495046E+03</rscale>
<asrwt>0</asrwt>
<pdfrwt beam="1">  1       21 0.27524827E-02 0.12495046E+03</pdfrwt>
<pdfrwt beam="2">  1       21 0.88628040E-01 0.12495046E+03</pdfrwt>
<totfact> 0.79949972E+05</totfact>
</mgrwt>
</event>
<event>
 9      1 +9.5563000e+06 1.24990100e+02 7.81860800e-03 1.23508500e-01
       21 -1    0    0  502  501 +0.0000000000e+00 +0.0000000000e+00 +1.8069951225e+01 1.8069951225e+01 0.0000000000e+00 0.0000e+00 -1.0000e+00
       21 -1    0    0  501  502 -0.0000000000e+00 -0.0000000000e+00 -2.1613968609e+02 2.1613968609e+02 0.0000000000e+00 0.0000e+00 -1.0000e+00
       25  2    1    2    0    0 +0.0000000000e+00 +0.0000000000e+00 -1.9806973486e+02 2.3420963731e+02 1.2499013698e+02 0.0000e+00 0.0000e+00
  9000006  2    3    3    0    0 +3.2817207287e+01 -3.0478413485e+01 -6.6593832099e+01 8.9669622802e+01 3.9999999964e+01 0.0000e+00 0.0000e+00
  9000006  2    3    3    0    0 -3.2817207287e+01 +3.0478413485e+01 -1.3147590276e+02 1.4454001451e+02 4.0000000057e+01 0.0000e+00 0.0000e+00
      -11  1    4    4    0    0 +2.7241824124e+01 -1.8320872405e+01 -6.8689354932e+01 7.6131457547e+01 0.0000000000e+00 0.0000e+00 1.0000e+00
       13  1    4    4    0    0 +5.5753831629e+00 -1.2157541080e+01 +2.0955228328e+00 1.3538165255e+01 0.0000000000e+00 0.0000e+00 1.0000e+00
      -11  1    5    5    0    0 -1.1876306671e+01 -9.0134109614e+00 -4.0940714492e+01 4.3570980485e+01 0.0000000000e+00 0.0000e+00 1.0000e+00
       13  1    5    5    0    0 -2.0940900616e+01 +3.9491824446e+01 -9.0535188271e+01 1.0096903403e+02 0.0000000000e+00 0.0000e+00 1.0000e+00
<mgrwt>
<rscale>  0 0.12499014E+03</rscale>
<asrwt>0</asrwt>
<pdfrwt beam="1">  1       21 0.45174878E-02 0.12499014E+03</pdfrwt>
<pdfrwt beam="2">  1       21 0.54034922E-01 0.12499014E+03</pdfrwt>
<totfact> 0.10359445E+06</totfact>
</mgrwt>
</event>
<event>
 9      1 +9.5563000e+06 1.25012700e+02 7.81860800e-03 1.23504900e-01
       21 -1    0    0  502  501 +0.0000000000e+00 +0.0000000000e+00 +1.0063488629e+03 1.0063488629e+03 0.0000000000e+00 0.0000e+00 -1.0000e+00
       21 -1    0    0  501  502 -0.0000000000e+00 -0.0000000000e+00 -3.8823949988e+00 3.8823949988e+00 0.0000000000e+00 0.0000e+00 -1.0000e+00
       25  2    1    2    0    0 +0.0000000000e+00 +0.0000000000e+00 +1.0024664679e+03 1.0102312579e+03 1.2501270004e+02 0.0000e+00 0.0000e+00
  9000006  2    3    3    0    0 +1.7380171006e+01 -1.3043534254e+01 +1.5508212499e+02 1.6162508971e+02 4.0000000027e+01 0.0000e+00 0.0000e+00
  9000006  2    3    3    0    0 -1.7380171006e+01 +1.3043534254e+01 +8.4738434295e+02 8.4860616822e+02 3.9999999348e+01 0.0000e+00 0.0000e+00
      -11  1    4    4    0    0 +2.9780315467e+01 -1.2729833004e+01 +9.8078833962e+01 1.0328781878e+02 0.0000000000e+00 0.0000e+00 1.0000e+00
       13  1    4    4    0    0 -1.2400144461e+01 -3.1370125008e-01 +5.7003291027e+01 5.8337270926e+01 0.0000000000e+00 0.0000e+00 1.0000e+00
      -11  1    5    5    0    0 -1.0569752365e+01 +2.1466450455e+01 +2.5436930913e+02 2.5549221825e+02 0.0000000000e+00 0.0000e+00 1.0000e+00
       13  1    5    5    0    0 -6.8104186415e+00 -8.4229162006e+00 +5.9301503381e+02 5.9311394997e+02 0.0000000000e+00 0.0000e+00 1.0000e+00
<mgrwt>
<rscale>  0 0.12501270E+03</rscale>
<asrwt>0</asrwt>
<pdfrwt beam="1">  1       21 0.25158632E+00 0.12501270E+03</pdfrwt>
<pdfrwt beam="2">  1       21 0.97060219E-03 0.12501270E+03</pdfrwt>
<totfact> 0.26748457E+05</totfact>
</mgrwt>
</event>
<event>
 9      1 +9.5563000e+06 1.25002200e+02 7.81860800e-03 1.23506600e-01
       21 -1    0    0  502  501 +0.0000000000e+00 +0.0000000000e+00 +1.0034063121e+02 1.0034063121e+02 0.0000000000e+00 0.0000e+00 -1.0000e+00
       21 -1    0    0  501  502 -0.0000000000e+00 -0.0000000000e+00 -3.8931239593e+01 3.8931239593e+01 0.0000000000e+00 0.0000e+00 -1.0000e+00
       25  2    1    2    0    0 -8.8817841970e-16 -1.7763568394e-15 +6.1409391616e+01 1.3927187080e+02 1.2500216245e+02 0.0000e+00 0.0000e+00
  9000006  2    3    3    0    0 +3.2494792128e+00 -1.0407496764e+01 -2.1405285157e+01 4.6658989297e+01 3.9999999320e+01 0.0000e+00 0.0000e+00
  9000006  2    3    3    0    0 -3.2494792128e+00 +1.0407496764e+01 +8.2814676773e+01 9.2612881505e+01 4.0000000344e+01 0.0000e+00 0.0000e+00
      -11  1    4    4    0    0 +1.7815883171e+01 +6.3464774508e+00 -1.2859080469e+01 2.2870055088e+01 0.0000000000e+00 0.0000e+00 1.0000e+00
       13  1    4    4    0    0 -1.4566403958e+01 -1.6753974215e+01 -8.5462046875e+00 2.3788934209e+01 0.0000000000e+00 0.0000e+00 1.0000e+00
      -11  1    5    5    0    0 +4.7233659273e+00 +1.7372555503e+01 +1.3521075889e+01 2.2515225151e+01 0.0000000000e+00 0.0000e+00 1.0000e+00
       13  1    5    5    0    0 -7.9728451401e+00 -6.9650587393e+00 +6.9293600884e+01 7.0097656354e+01 0.0000000000e+00 0.0000e+00 1.0000e+00
<mgrwt>
<rscale>  0 0.12500216E+03</rscale>
<asrwt>0</asrwt>
<pdfrwt beam="1">  1       21 0.25085157E-01 0.12500216E+03</pdfrwt>
<pdfrwt beam="2">  1       21 0.97328101E-02 0.12500216E+03</pdfrwt>
<totfact> 0.12784969E+06</totfact>
</mgrwt>
</event>
<event>
 9      1 +9.5563000e+06 1.24991300e+02 7.81860800e-03 1.23508300e-01
       21 -1    0    0  502  501 +0.0000000000e+00 +0.0000000000e+00 +9.8952674366e+01 9.8952674366e+01 0.0000000000e+00 0.0000e+00 -1.0000e+00
       21 -1    0    0  501  502 -0.0000000000e+00 -0.0000000000e+00 -3.9470464710e+01 3.9470464710e+01 0.0000000000e+00 0.0000e+00 -1.0000e+00
       25  2    1    2    0    0 +0.0000000000e+00 +3.5527136788e-15 +5.9482209655e+01 1.3842313908e+02 1.2499132836e+02 0.0000e+00 0.0000e+00
  9000006  2    3    3    0    0 +3.5449583669e+01 +3.1258971882e+01 +3.9132470001e+01 7.3247160260e+01 3.9999999655e+01 0.0000e+00 0.0000e+00
  9000006  2    3    3    0    0 -3.5449583669e+01 -3.1258971882e+01 +2.0349739654e+01 6.5175978815e+01 4.0000000064e+01 0.0000e+00 0.0000e+00
      -11  1    5    5    0    0 -2.9224741716e+01 -8.5895003771e+00 -4.7016194143e+00 3.0821587731e+01 0.0000000000e+00 0.0000e+00 1.0000e+00
       13  1    4    4    0    0 +3.1765542444e+01 +4.0517464726e+01 +3.5921959418e+01 6.2778195283e+01 0.0000000000e+00 0.0000e+00 1.0000e+00
      -11  1    4    4    0    0 +3.6840412255e+00 -9.2584928442e+00 +3.2105105827e+00 1.0468964977e+01 0.0000000000e+00 0.0000e+00 1.0000e+00
       13  1    5    5    0    0 -6.2248419530e+00 -2.2669471505e+01 +2.5051359069e+01 3.4354391085e+01 0.0000000000e+00 0.0000e+00 1.0000e+00
<mgrwt>
<rscale>  0 0.12499133E+03</rscale>
<asrwt>0</asrwt>
<pdfrwt beam="1">  1       21 0.24738168E-01 0.12499133E+03</pdfrwt>
<pdfrwt beam="2">  1       21 0.98676164E-02 0.12499133E+03</pdfrwt>
<totfact> 0.12814102E+06</totfact>
</mgrwt>
</event>
<event>
 9      1 +9.5563000e+06 1.25002000e+02 7.81860800e-03 1.23506600e-01
       21 -1    0    0  502  501 +0.0000000000e+00 +0.0000000000e+00 +1.7464392695e+02 1.7464392695e+02 0.0000000000e+00 0.0000e+00 1.0000e+00
       21 -1    0    0  501  502 -0.0000000000e+00 -0.0000000000e+00 -2.2367656677e+01 2.2367656677e+01 0.0000000000e+00 0.0000e+00 1.0000e+00
       25  2    1    2    0    0 -7.1054273576e-15 -1.7763568394e-15 +1.5227627027e+02 1.9701158362e+02 1.2500200636e+02 0.0000e+00 0.0000e+00
  9000006  2    3    3    0    0 +4.5403839078e+01 -1.5496666448e+01 +7.9562270449e+01 1.0115241058e+02 4.0000000170e+01 0.0000e+00 0.0000e+00
  9000006  2    3    3    0    0 -4.5403839078e+01 +1.5496666448e+01 +7.2713999821e+01 9.5859173041e+01 4.0000000153e+01 0.0000e+00 0.0000e+00
      -11  1    5    5    0    0 -5.1565886975e+01 +1.2901522202e+01 +5.3087611072e+01 7.5125125118e+01 0.0000000000e+00 0.0000e+00 1.0000e+00
       13  1    4    4    0    0 +2.4802423024e+01 -8.9862444186e+00 +9.8339625758e+00 2.8153500609e+01 0.0000000000e+00 0.0000e+00 1.0000e+00
      -11  1    4    4    0    0 +2.0601416054e+01 -6.5104220293e+00 +6.9728307873e+01 7.2998909973e+01 0.0000000000e+00 0.0000e+00 1.0000e+00
       13  1    5    5    0    0 +6.1620478977e+00 +2.5951442459e+00 +1.9626388749e+01 2.0734047923e+01 0.0000000000e+00 0.0000e+00 1.0000e+00
<mgrwt>
<rscale>  0 0.12500201E+03</rscale>
<asrwt>0</asrwt>
<pdfrwt beam="1">  1       21 0.43660978E-01 0.12500201E+03</pdfrwt>
<pdfrwt beam="2">  1       21 0.55919147E-02 0.12500201E+03</pdfrwt>
<totfact> 0.11215797E+06</totfact>
</mgrwt>
</event>
<event>
 9      1 +9.5563000e+06 1.25022400e+02 7.81860800e-03 1.23503400e-01
       21 -1    0    0  502  501 +0.0000000000e+00 +0.0000000000e+00 +8.4230431003e+02 8.4230431003e+02 0.0000000000e+00 0.0000e+00 -1.0000e+00
       21 -1    0    0  501  502 -0.0000000000e+00 -0.0000000000e+00 -4.6392376472e+00 4.6392376472e+00 0.0000000000e+00 0.0000e+00 -1.0000e+00
       25  2    1    2    0    0 +0.0000000000e+00 -3.5527136788e-15 +8.3766507238e+02 8.4694354767e+02 1.2502239584e+02 0.0000e+00 0.0000e+00
  9000006  2    3    3    0    0 +2.8405300704e+01 +4.3005658844e+00 +6.7964828168e+02 6.8143021856e+02 3.9999999935e+01 0.0000e+00 0.0000e+00
  9000006  2    3    3    0    0 -2.8405300704e+01 -4.3005658844e+00 +1.5801679070e+02 1.6551332912e+02 3.9999999973e+01 0.0000e+00 0.0000e+00
      -11  1    5    5    0    0 -2.0327310519e+01 +4.5519302132e+00 +1.4917014055e+02 1.5061756356e+02 0.0000000000e+00 0.0000e+00 1.0000e+00
       13  1    4    4    0    0 +2.7816558574e+01 -1.3306227739e+01 +3.7079214263e+02 3.7207207590e+02 0.0000000000e+00 0.0000e+00 1.0000e+00
      -11  1    4    4    0    0 +5.8874212967e-01 +1.7606793623e+01 +3.0885613906e+02 3.0935814266e+02 0.0000000000e+00 0.0000e+00 1.0000e+00
       13  1    5    5    0    0 -8.0779901853e+00 -8.8524960976e+00 +8.8466501444e+00 1.4895765552e+01 0.0000000000e+00 0.0000e+00 1.0000e+00
<mgrwt>
<rscale>  0 0.12502240E+03</rscale>
<asrwt>0</asrwt>
<pdfrwt beam="1">  1       21 0.21057556E+00 0.12502240E+03</pdfrwt>
<pdfrwt beam="2">  1       21 0.11598123E-02 0.12502240E+03</pdfrwt>
<totfact> 0.35210800E+05</totfact>
</mgrwt>
</event>
<event>
 9      1 +9.5563000e+06 1.24972300e+02 7.81860800e-03 1.23511300e-01
       21 -1    0    0  502  501 +0.0000000000e+00 +0.0000000000e+00 +1.0821515917e+02 1.0821515917e+02 0.0000000000e+00 0.0000e+00 -1.0000e+00
       21 -1    0    0  501  502 -0.0000000000e+00 -0.0000000000e+00 -3.6081090038e+01 3.6081090038e+01 0.0000000000e+00 0.0000e+00 -1.0000e+00
       25  2    1    2    0    0 -3.5527136788e-15 +7.1054273576e-15 +7.2134069132e+01 1.4429624921e+02 1.2497233136e+02 0.0000e+00 0.0000e+00
  9000006  2    3    3    0    0 +3.1326269267e+01 -3.6327147765e+01 +3.3899507539e+01 7.1064572196e+01 3.9999999989e+01 0.0000e+00 0.0000e+00
  9000006  2    3    3    0    0 -3.1326269267e+01 +3.6327147765e+01 +3.8234561593e+01 7.3231677012e+01 4.0000000085e+01 0.0000e+00 0.0000e+00
      -11  1    4    4    0    0 -6.8433634649e+00 +2.8846703063e+00 +1.8707228715e+00 7.6584953059e+00 0.0000000000e+00 0.0000e+00 1.0000e+00
       13  1    4    4    0    0 +3.8169632732e+01 -3.9211818071e+01 +3.2028784667e+01 6.3406076890e+01 0.0000000000e+00 0.0000e+00 1.0000e+00
      -11  1    5    5    0    0 +9.0560730022e+00 +4.9659899166e+00 +1.8878739170e+00 1.0499408650e+01 0.0000000000e+00 0.0000e+00 1.0000e+00
       13  1    5    5    0    0 -4.0382342270e+01 +3.1361157848e+01 +3.6346687676e+01 6.2732268362e+01 0.0000000000e+00 0.0000e+00 1.0000e+00
<mgrwt>
<rscale>  0 0.12497233E+03</rscale>
<asrwt>0</asrwt>
<pdfrwt beam="1">  1       21 0.27053789E-01 0.12497233E+03</pdfrwt>
<pdfrwt beam="2">  1       21 0.90202727E-02 0.12497233E+03</pdfrwt>
<totfact> 0.12645879E+06</totfact>
</mgrwt>
</event>
<event>
 9      1 +9.5563000e+06 1.24993100e+02 7.81860800e-03 1.23508000e-01
       21 -1    0    0  502  501 +0.0000000000e+00 +0.0000000000e+00 +1.3547492491e+01 1.3547492491e+01 0.0000000000e+00 0.0000e+00 -1.0000e+00
       21 -1    0    0  501  502 -0.0000000000e+00 -0.0000000000e+00 -2.8830586593e+02 2.8830586593e+02 0.0000000000e+00 0.0000e+00 -1.0000e+00
       25  2    1    2    0    0 -7.1054273576e-15 +3.5527136788e-15 -2.7475837344e+02 3.0185335842e+02 1.2499314467e+02 0.0000e+00 0.0000e+00
  9000006  2    3    3    0    0 +4.3088381274e+01 -2.1192424414e+01 -1.3663839730e+02 1.5025238460e+02 4.0000000105e+01 0.0000e+00 0.0000e+00
  9000006  2    3    3    0    0 -4.3088381274e+01 +2.1192424414e+01 -1.3811997614e+02 1.5160097382e+02 4.0000000008e+01 0.0000e+00 0.0000e+00
      -11  1    5    5    0    0 -2.4759963545e+01 -5.9136999203e+00 -8.9086632950e+01 9.2652338404e+01 0.0000000000e+00 0.0000e+00 1.0000e+00
       13  1    4    4    0    0 +3.9893707577e+01 -2.2417492303e+01 -1.3883791515e+02 1.4618487797e+02 0.0000000000e+00 0.0000e+00 1.0000e+00
      -11  1    4    4    0    0 +3.1946736974e+00 +1.2250678890e+00 +2.1995178518e+00 4.0675066252e+00 0.0000000000e+00 0.0000e+00 1.0000e+00
       13  1    5    5    0    0 -1.8328417729e+01 +2.7106124334e+01 -4.9033343191e+01 5.8948635416e+01 0.0000000000e+00 0.0000e+00 1.0000e+00
<mgrwt>
<rscale>  0 0.12499314E+03</rscale>
<asrwt>0</asrwt>
<pdfrwt beam="1">  1       21 0.33868731E-02 0.12499314E+03</pdfrwt>
<pdfrwt beam="2">  1       21 0.72076466E-01 0.12499314E+03</pdfrwt>
<totfact> 0.90259411E+05</totfact>
</mgrwt>
</event>
<event>
 9      1 +9.5563000e+06 1.24996900e+02 7.81860800e-03 1.23507400e-01
       21 -1    0    0  502  501 +0.0000000000e+00 +0.0000000000e+00 +1.3814255903e+02 1.3814255903e+02 0.0000000000e+00 0.0000e+00 1.0000e+00
       21 -1    0    0  501  502 -0.0000000000e+00 -0.0000000000e+00 -2.8275528995e+01 2.8275528995e+01 0.0000000000e+00 0.0000e+00 1.0000e+00
       25  2    1    2    0    0 -1.7763568394e-15 +0.0000000000e+00 +1.0986703003e+02 1.6641808802e+02 1.2499686289e+02 0.0000e+00 0.0000e+00
  9000006  2    3    3    0    0 +1.3559143043e+01 +2.8679639009e+01 +6.9358682728e+00 5.1521629736e+01 4.0000000103e+01 0.0000e+00 0.0000e+00
  9000006  2    3    3    0    0 -1.3559143043e+01 -2.8679639009e+01 +1.0293116176e+02 1.1489645829e+02 4.0000000148e+01 0.0000e+00 0.0000e+00
      -11  1    4    4    0    0 +2.2324027028e+01 +3.1030827615e+01 -2.6540994294e+00 3.8318646753e+01 0.0000000000e+00 0.0000e+00 1.0000e+00
       13  1    4    4    0    0 -8.7648839848e+00 -2.3511886055e+00 +9.5899677022e+00 1.3202982983e+01 0.0000000000e+00 0.0000e+00 1.0000e+00
      -11  1    5    5    0    0 -1.7164550586e+01 -2.0886339254e+01 +2.6068592722e+01 3.7555725139e+01 0.0000000000e+00 0.0000e+00 1.0000e+00
       13  1    5    5    0    0 +3.6054075429e+00 -7.7932997553e+00 +7.6862569039e+01 7.7340733148e+01 0.0000000000e+00 0.0000e+00 1.0000e+00
<mgrwt>
<rscale>  0 0.12499686E+03</rscale>
<asrwt>0</asrwt>
<pdfrwt beam="1">  1       21 0.34535638E-01 0.12499686E+03</pdfrwt>
<pdfrwt beam="2">  1       21 0.70688826E-02 0.12499686E+03</pdfrwt>
<totfact> 0.12008604E+06</totfact>
</mgrwt>
</event>
<event>
 9      1 +9.5563000e+06 1.25000200e+02 7.81860800e-03 1.23506900e-01
       21 -1    0    0  502  501 +0.0000000000e+00 +0.0000000000e+00 +4.5169724989e+01 4.5169724989e+01 0.0000000000e+00 0.0000e+00 -1.0000e+00
       21 -1    0    0  501  502 -0.0000000000e+00 -0.0000000000e+00 -8.6479630155e+01 8.6479630155e+01 0.0000000000e+00 0.0000e+00 -1.0000e+00
       25  2    1    2    0    0 +0.0000000000e+00 +1.4210854715e-14 -4.1309905166e+01 1.3164935514e+02 1.2500017778e+02 0.0000e+00 0.0000e+00
  9000006  2    3    3    0    0 +3.3061633036e+00 -3.7716009609e+01 -5.1770230663e+01 7.5588258961e+01 4.0000000165e+01 0.0000e+00 0.0000e+00
  9000006  2    3    3    0    0 -3.3061633036e+00 +3.7716009609e+01 +1.0460325497e+01 5.6061096183e+01 3.9999999990e+01 0.0000e+00 0.0000e+00
      -11  1    5    5    0    0 -1.5406647153e+01 +1.5737416301e+01 -9.5149936333e+00 2.3990959801e+01 0.0000000000e+00 0.0000e+00 1.0000e+00
       13  1    4    4    0    0 -3.0003606973e+00 -3.6401391572e+01 -1.7108866068e+01 4.0333320850e+01 0.0000000000e+00 0.0000e+00 1.0000e+00
      -11  1    4    4    0    0 +6.3065240009e+00 -1.3146180368e+00 -3.4661364596e+01 3.5254938111e+01 0.0000000000e+00 0.0000e+00 1.0000e+00
       13  1    5    5    0    0 +1.2100483850e+01 +2.1978593308e+01 +1.9975319131e+01 3.2070136382e+01 0.0000000000e+00 0.0000e+00 1.0000e+00
<mgrwt>
<rscale>  0 0.12500018E+03</rscale>
<asrwt>0</asrwt>
<pdfrwt beam="1">  1       21 0.11292431E-01 0.12500018E+03</pdfrwt>
<pdfrwt beam="2">  1       21 0.21619907E-01 0.12500018E+03</pdfrwt>
<totfact> 0.13018080E+06</totfact>
</mgrwt>
</event>
<event>
 9      1 +9.5563000e+06 1.25001300e+02 7.81860800e-03 1.23506700e-01
       21 -1    0    0  502  501 +0.0000000000e+00 +0.0000000000e+00 +3.0250881337e+01 3.0250881337e+01 0.0000000000e+00 0.0000e+00 1.0000e+00
       21 -1    0    0  501  502 -0.0000000000e+00 -0.0000000000e+00 -1.2913115035e+02 1.2913115035e+02 0.0000000000e+00 0.0000e+00 1.0000e+00
       25  2    1    2    0    0 +0.0000000000e+00 +0.0000000000e+00 -9.8880269009e+01 1.5938203168e+02 1.2500129769e+02 0.0000e+00 0.0000e+00
  9000006  2    3    3    0    0 +2.1994482045e+01 +4.1448593043e+01 -3.6400488656e+01 7.1601247569e+01 3.9999999666e+01 0.0000e+00 0.0000e+00
  9000006  2    3    3    0    0 -2.1994482045e+01 -4.1448593043e+01 -6.2479780353e+01 8.7780784114e+01 4.0000000014e+01 0.0000e+00 0.0000e+00
      -11  1    5    5    0    0 -3.2496928113e+01 -3.8884323050e+01 -5.3877134576e+01 7.3964765571e+01 0.0000000000e+00 0.0000e+00 1.0000e+00
       13  1    4    4    0    0 +1.4434505310e+00 +3.2301683398e+01 -4.6156178530e+00 3.2661693587e+01 0.0000000000e+00 0.0000e+00 1.0000e+00
      -11  1    4    4    0    0 +2.0551031514e+01 +9.1469096450e+00 -3.1784870803e+01 3.8939553982e+01 0.0000000000e+00 0.0000e+00 1.0000e+00
       13  1    5    5    0    0 +1.0502446069e+01 -2.5642699928e+00 -8.6026457764e+00 1.3816018543e+01 0.0000000000e+00 0.0000e+00 1.0000e+00
<mgrwt>
<rscale>  0 0.12500130E+03</rscale>
<asrwt>0</asrwt>
<pdfrwt beam="1">  1       21 0.75627204E-02 0.12500130E+03</pdfrwt>
<pdfrwt beam="2">  1       21 0.32282787E-01 0.12500130E+03</pdfrwt>
<totfact> 0.12201423E+06</totfact>
</mgrwt>
</event>
<event>
 9      1 +9.5563000e+06 1.25001400e+02 7.81860800e-03 1.23506700e-01
       21 -1    0    0  502  501 +0.0000000000e+00 +0.0000000000e+00 +4.9982059134e+01 4.9982059134e+01 0.0000000000e+00 0.0000e+00 1.0000e+00
       21 -1    0    0  501  502 -0.0000000000e+00 -0.0000000000e+00 -7.8154740175e+01 7.8154740175e+01 0.0000000000e+00 0.0000e+00 1.0000e+00
       25  2    1    2    0    0 +0.0000000000e+00 +0.0000000000e+00 -2.8172681041e+01 1.2813679931e+02 1.2500135751e+02 0.0000e+00 0.0000e+00
  9000006  2    3    3    0    0 -2.7790365094e+01 +3.9125858664e+01 -1.5919386003e+01 6.4471420524e+01 4.0000000068e+01 0.0000e+00 0.0000e+00
  9000006  2    3    3    0    0 +2.7790365094e+01 -3.9125858664e+01 -1.2253295038e+01 6.3665378784e+01 4.0000000102e+01 0.0000e+00 0.0000e+00
      -11  1    5    5    0    0 -1.2299395696e+00 -2.4636212586e+01 +7.3831373155e+00 2.5748134662e+01 0.0000000000e+00 0.0000e+00 1.0000e+00
       13  1    4    4    0    0 -6.4991595246e+00 +2.0076927171e+01 -2.6615220337e+01 3.3966042347e+01 0.0000000000e+00 0.0000e+00 1.0000e+00
      -11  1    4    4    0    0 -2.1291205570e+01 +1.9048931494e+01 +1.0695834334e+01 3.0505378178e+01 0.0000000000e+00 0.0000e+00 1.0000e+00
       13  1    5    5    0    0 +2.9020304664e+01 -1.4489646078e+01 -1.9636432354e+01 3.7917244122e+01 0.0000000000e+00 0.0000e+00 1.0000e+00
<mgrwt>
<rscale>  0 0.12500136E+03</rscale>
<asrwt>0</asrwt>
<pdfrwt beam="1">  1       21 0.12495515E-01 0.12500136E+03</pdfrwt>
<pdfrwt beam="2">  1       21 0.19538685E-01 0.12500136E+03</pdfrwt>
<totfact> 0.13128028E+06</totfact>
</mgrwt>
</event>
<event>
 9      1 +9.5563000e+06 1.25003300e+02 7.81860800e-03 1.23506400e-01
       21 -1    0    0  502  501 +0.0000000000e+00 +0.0000000000e+00 +6.6830569314e+01 6.6830569314e+01 0.0000000000e+00 0.0000e+00 -1.0000e+00
       21 -1    0    0  501  502 -0.0000000000e+00 -0.0000000000e+00 -5.8453131981e+01 5.8453131981e+01 0.0000000000e+00 0.0000e+00 -1.0000e+00
       25  2    1    2    0    0 -7.1054273576e-15 +7.1054273576e-15 +8.3774373324e+00 1.2528370129e+02 1.2500329737e+02 0.0000e+00 0.0000e+00
  9000006  2    3    3    0    0 -3.2371296167e+01 +3.5204432392e+01 -2.0325788580e-01 6.2348169148e+01 4.0000000085e+01 0.0000e+00 0.0000e+00
  9000006  2    3    3    0    0 +3.2371296167e+01 -3.5204432392e+01 +8.5806952182e+00 6.2935532147e+01 4.0000000007e+01 0.0000e+00 0.0000e+00
      -11  1    4    4    0    0 +3.7733554396e+00 -6.1310723358e-01 -9.8415377549e+00 1.0557934321e+01 0.0000000000e+00 0.0000e+00 1.0000e+00
       13  1    4    4    0    0 -3.6144651606e+01 +3.5817539626e+01 +9.6382798691e+00 5.1790234827e+01 0.0000000000e+00 0.0000e+00 1.0000e+00
      -11  1    5    5    0    0 +1.1340116906e+01 -2.1696121968e+00 +1.9160457117e+01 2.2370261184e+01 0.0000000000e+00 0.0000e+00 1.0000e+00
       13  1    5    5    0    0 +2.1031179261e+01 -3.3034820195e+01 -1.0579761899e+01 4.0565270963e+01 0.0000000000e+00 0.0000e+00 1.0000e+00
<mgrwt>
<rscale>  0 0.12500330E+03</rscale>
<asrwt>0</asrwt>
<pdfrwt beam="1">  1       21 0.16707642E-01 0.12500330E+03</pdfrwt>
<pdfrwt beam="2">  1       21 0.14613283E-01 0.12500330E+03</pdfrwt>
<totfact> 0.13216719E+06</totfact>
</mgrwt>
</event>
<event>
 9      1 +9.5563000e+06 1.24994600e+02 7.81860800e-03 1.23507800e-01
       21 -1    0    0  502  501 +0.0000000000e+00 +0.0000000000e+00 +3.9444891271e+02 3.9444891271e+02 0.0000000000e+00 0.0000e+00 1.0000e+00
       21 -1    0    0  501  502 -0.0000000000e+00 -0.0000000000e+00 -9.9021985554e+00 9.9021985554e+00 0.0000000000e+00 0.0000e+00 1.0000e+00
       25  2    1    2    0    0 +0.0000000000e+00 +7.1054273576e-15 +3.8454671416e+02 4.0435111127e+02 1.2499458314e+02 0.0000e+00 0.0000e+00
  9000006  2    3    3    0    0 +1.6946663809e+01 -3.2523167379e+01 +2.9255498511e+02 2.9754556818e+02 4.0000000004e+01 0.0000e+00 0.0000e+00
  9000006  2    3    3    0    0 -1.6946663809e+01 +3.2523167379e+01 +9.1991729048e+01 1.0680554309e+02 3.9999999882e+01 0.0000e+00 0.0000e+00
      -11  1    4    4    0    0 -1.2506258087e+01 -5.5050833095e+00 +5.6357354973e+01 5.7990205148e+01 0.0000000000e+00 0.0000e+00 1.0000e+00
       13  1    4    4    0    0 +2.9452921896e+01 -2.7018084070e+01 +2.3619763014e+02 2.3955536303e+02 0.0000000000e+00 0.0000e+00 1.0000e+00
      -11  1    5    5    0    0 -2.6551295687e+01 +3.2773964899e+01 +8.5106266781e+01 9.4985160543e+01 0.0000000000e+00 0.0000e+00 1.0000e+00
       13  1    5    5    0    0 +9.6046318780e+00 -2.5079752005e-01 +6.8854622669e+00 1.1820382546e+01 0.0000000000e+00 0.0000e+00 1.0000e+00
<mgrwt>
<rscale>  0 0.12499458E+03</rscale>
<asrwt>0</asrwt>
<pdfrwt beam="1">  1       21 0.98612176E-01 0.12499458E+03</pdfrwt>
<pdfrwt beam="2">  1       21 0.24755510E-02 0.12499458E+03</pdfrwt>
<totfact> 0.74320288E+05</totfact>
</mgrwt>
</event>
<event>
 9      1 +9.5563000e+06 1.24990500e+02 7.81860800e-03 1.23508400e-01
       21 -1    0    0  502  501 +0.0000000000e+00 +0.0000000000e+00 +2.0209755524e+02 2.0209755524e+02 0.0000000000e+00 0.0000e+00 1.0000e+00
       21 -1    0    0  501  502 -0.0000000000e+00 -0.0000000000e+00 -1.9325585771e+01 1.9325585771e+01 0.0000000000e+00 0.0000e+00 1.0000e+00
       25  2    1    2    0    0 +0.0000000000e+00 -7.1054273576e-15 +1.8277196947e+02 2.2142314101e+02 1.2499045784e+02 0.0000e+00 0.0000e+00
  9000006  2    3    3    0    0 +1.9743391998e+01 -3.2382899956e+01 +1.4355417356e+02 1.5377338678e+02 3.9999999944e+01 0.0000e+00 0.0000e+00
  9000006  2    3    3    0    0 -1.9743391998e+01 +3.2382899956e+01 +3.9217795905e+01 6.7649754236e+01 3.9999999944e+01 0.0000e+00 0.0000e+00
      -11  1    4    4    0    0 +2.0027339869e+01 +2.5398008049e+00 +5.4043299804e+01 5.7690754754e+01 0.0000000000e+00 0.0000e+00 1.0000e+00
       13  1    4    4    0    0 -2.8394787178e-01 -3.4922700761e+01 +8.9510873761e+01 9.6082632022e+01 0.0000000000e+00 0.0000e+00 1.0000e+00
      -11  1    5    5    0    0 -4.5113959361e+00 +2.5784909441e+01 +1.2437669030e+00 2.6206129136e+01 0.0000000000e+00 0.0000e+00 1.0000e+00
       13  1    5    5    0    0 -1.5231996061e+01 +6.5979905150e+00 +3.7974029002e+01 4.1443625100e+01 0.0000000000e+00 0.0000e+00 1.0000e+00
<mgrwt>
<rscale>  0 0.12499046E+03</rscale>
<asrwt>0</asrwt>
<pdfrwt beam="1">  1       21 0.50524382E-01 0.12499046E+03</pdfrwt>
<pdfrwt beam="2">  1       21 0.48313971E-02 0.12499046E+03</pdfrwt>
<totfact> 0.10643029E+06</totfact>
</mgrwt>
</event>
<event>
 9      1 +9.5563000e+06 1.24999200e+02 7.81860800e-03 1.23507000e-01
       21 -1    0    0  502  501 +0.0000000000e+00 +0.0000000000e+00 +2.0822698369e+02 2.0822698369e+02 0.0000000000e+00 0.0000e+00 1.0000e+00
       21 -1    0    0  501  502 -0.0000000000e+00 -0.0000000000e+00 -1.8759345960e+01 1.8759345960e+01 0.0000000000e+00 0.0000e+00 1.0000e+00
       25  2    1    2    0    0 +0.0000000000e+00 +0.0000000000e+00 +1.8946763773e+02 2.2698632965e+02 1.2499923240e+02 0.0000e+00 0.0000e+00
  9000006  2    3    3    0    0 -2.3559126032e+01 -2.4976658729e+01 +1.5570422243e+02 1.6438573779e+02 4.0000000057e+01 0.0000e+00 0.0000e+00
  9000006  2    3    3    0    0 +2.3559126032e+01 +2.4976658729e+01 +3.3763415299e+01 6.2600591861e+01 3.9999999852e+01 0.0000e+00 0.0000e+00
      -11  1    4    4    0    0 -1.6338418827e+01 -1.8856436361e+01 +3.3269556081e+01 4.1585724520e+01 0.0000000000e+00 0.0000e+00 1.0000e+00
       13  1    4    4    0    0 -7.2207072044e+00 -6.1202223677e+00 +1.2243466635e+02 1.2280001327e+02 0.0000000000e+00 0.0000e+00 1.0000e+00
      -11  1    5    5    0    0 +1.9012120699e+01 +1.4454870990e+01 +4.2116926503e+01 4.8417347375e+01 0.0000000000e+00 0.0000e+00 1.0000e+00
       13  1    5    5    0    0 +4.5470053322e+00 +1.0521787739e+01 -8.3535112041e+00 1.4183244486e+01 0.0000000000e+00 0.0000e+00 1.0000e+00
<mgrwt>
<rscale>  0 0.12499923E+03</rscale>
<asrwt>0</asrwt>
<pdfrwt beam="1">  1       21 0.52056739E-01 0.12499923E+03</pdfrwt>
<pdfrwt beam="2">  1       21 0.46898371E-02 0.12499923E+03</pdfrwt>
<totfact> 0.10515758E+06</totfact>
</mgrwt>
</event>
<event>
 9      1 +9.5563000e+06 1.24995200e+02 7.81860800e-03 1.23507700e-01
       21 -1    0    0  502  501 +0.0000000000e+00 +0.0000000000e+00 +2.2858148369e+02 2.2858148369e+02 0.0000000000e+00 0.0000e+00 1.0000e+00
       21 -1    0    0  501  502 -0.0000000000e+00 -0.0000000000e+00 -1.7087781292e+01 1.7087781292e+01 0.0000000000e+00 0.0000e+00 1.0000e+00
       25  2    1    2    0    0 +0.0000000000e+00 +0.0000000000e+00 +2.1149370240e+02 2.4566926498e+02 1.2499520632e+02 0.0000e+00 0.0000e+00
  9000006  2    3    3    0    0 +3.6166065975e+01 +1.6220994956e+01 +1.5902577741e+02 1.6870181652e+02 4.0000000127e+01 0.0000e+00 0.0000e+00
  9000006  2    3    3    0    0 -3.6166065975e+01 -1.6220994956e+01 +5.2467924990e+01 7.6967448467e+01 3.9999999566e+01 0.0000e+00 0.0000e+00
      -11  1    5    5    0    0 -6.8422657057e+00 -9.6084847560e-01 -6.4225630398e+00 9.4334058420e+00 0.0000000000e+00 0.0000e+00 1.0000e+00
       13  1    4    4    0    0 +1.6657367283e-01 +7.5821432916e+00 +9.0479953629e+01 9.0797239233e+01 0.0000000000e+00 0.0000e+00 1.0000e+00
      -11  1    4    4    0    0 +3.5999492302e+01 +8.6388516641e+00 +6.8545823778e+01 7.7904577282e+01 0.0000000000e+00 0.0000e+00 1.0000e+00
       13  1    5    5    0    0 -2.9323800269e+01 -1.5260146480e+01 +5.8890488030e+01 6.7534042625e+01 0.0000000000e+00 0.0000e+00 1.0000e+00
<mgrwt>
<rscale>  0 0.12499521E+03</rscale>
<asrwt>0</asrwt>
<pdfrwt beam="1">  1       21 0.57145361E-01 0.12499521E+03</pdfrwt>
<pdfrwt beam="2">  1       21 0.42719460E-02 0.12499521E+03</pdfrwt>
<totfact> 0.10113527E+06</totfact>
</mgrwt>
</event>
<event>
 9      1 +9.5563000e+06 1.25004300e+02 7.81860800e-03 1.23506300e-01
       21 -1    0    0  502  501 +0.0000000000e+00 +0.0000000000e+00 +1.0084978614e+01 1.0084978614e+01 0.0000000000e+00 0.0000e+00 -1.0000e+00
       21 -1    0    0  501  502 -0.0000000000e+00 -0.0000000000e+00 -3.8735998632e+02 3.8735998632e+02 0.0000000000e+00 0.0000e+00 -1.0000e+00
       25  2    1    2    0    0 -8.8817841970e-16 +8.8817841970e-16 -3.7727500770e+02 3.9744496493e+02 1.2500427478e+02 0.0000e+00 0.0000e+00
  9000006  2    3    3    0    0 -3.0615999464e+00 -3.6922691366e+00 -3.6703954867e+01 5.4499417823e+01 3.9999999932e+01 0.0000e+00 0.0000e+00
  9000006  2    3    3    0    0 +3.0615999464e+00 +3.6922691366e+00 -3.4057105284e+02 3.4294554711e+02 4.0000000075e+01 0.0000e+00 0.0000e+00
      -11  1    4    4    0    0 +1.7217562073e+01 -8.5393861340e+00 -2.0436714255e+01 2.8053963157e+01 0.0000000000e+00 0.0000e+00 1.0000e+00
       13  1    4    4    0    0 -2.0279162019e+01 +4.8471169974e+00 -1.6267240612e+01 2.6445454666e+01 0.0000000000e+00 0.0000e+00 1.0000e+00
      -11  1    5    5    0    0 +8.2254178321e+00 +8.8229719312e+00 -3.2934584909e+02 3.2956667102e+02 0.0000000000e+00 0.0000e+00 1.0000e+00
       13  1    5    5    0    0 -5.1638178856e+00 -5.1307027947e+00 -1.1225203743e+01 1.3378876089e+01 0.0000000000e+00 0.0000e+00 1.0000e+00
<mgrwt>
<rscale>  0 0.12500427E+03</rscale>
<asrwt>0</asrwt>
<pdfrwt beam="1">  1       21 0.25212446E-02 0.12500427E+03</pdfrwt>
<pdfrwt beam="2">  1       21 0.96839999E-01 0.12500427E+03</pdfrwt>
<totfact> 0.75247380E+05</totfact>
</mgrwt>
</event>
<event>
 9      1 +9.5563000e+06 1.24993300e+02 7.81860800e-03 1.23508000e-01
       21 -1    0    0  502  501 +0.0000000000e+00 +0.0000000000e+00 +1.7686483096e+02 1.7686483096e+02 0.0000000000e+00 0.0000e+00 -1.0000e+00
       21 -1    0    0  501  502 -0.0000000000e+00 -0.0000000000e+00 -2.2083718618e+01 2.2083718618e+01 0.0000000000e+00 0.0000e+00 -1.0000e+00
       25  2    1    2    0    0 -7.1054273576e-15 +0.0000000000e+00 +1.5478111234e+02 1.9894854958e+02 1.2499333039e+02 0.0000e+00 0.0000e+00
  9000006  2    3    3    0    0 +4.5577557679e+01 -1.2879228901e+01 +8.9988412771e+01 1.0927535281e+02 3.9999999963e+01 0.0000e+00 0.0000e+00
  9000006  2    3    3    0    0 -4.5577557679e+01 +1.2879228901e+01 +6.4792699573e+01 8.9673196774e+01 4.0000000007e+01 0.0000e+00 0.0000e+00
      -11  1    4    4    0    0 +9.7655303314e+00 -1.7319109665e+01 +5.7055410773e+01 6.0420501825e+01 0.0000000000e+00 0.0000e+00 1.0000e+00
       13  1    4    4    0    0 +3.5812027348e+01 +4.4398807636e+00 +3.2933001998e+01 4.8854850983e+01 0.0000000000e+00 0.0000e+00 1.0000e+00
      -11  1    5    5    0    0 -4.9216784508e+01 +1.9523226860e+00 +4.4704165366e+01 6.6517410069e+01 0.0000000000e+00 0.0000e+00 1.0000e+00
       13  1    5    5    0    0 +3.6392268288e+00 +1.0926906215e+01 +2.0088534207e+01 2.3155786705e+01 0.0000000000e+00 0.0000e+00 1.0000e+00
<mgrwt>
<rscale>  0 0.12499333E+03</rscale>
<asrwt>0</asrwt>
<pdfrwt beam="1">  1       21 0.44216204E-01 0.12499333E+03</pdfrwt>
<pdfrwt beam="2">  1       21 0.55209302E-02 0.12499333E+03</pdfrwt>
<totfact> 0.11170860E+06</totfact>
</mgrwt>
</event>
<event>
 9      1 +9.5563000e+06 1.24997400e+02 7.81860800e-03 1.23507300e-01
       21 -1    0    0  502  501 +0.0000000000e+00 +0.0000000000e+00 +1.4529673975e+01 1.4529673975e+01 0.0000000000e+00 0.0000e+00 -1.0000e+00
       21 -1    0    0  501  502 -0.0000000000e+00 -0.0000000000e+00 -2.6883503329e+02 2.6883503329e+02 0.0000000000e+00 0.0000e+00 -1.0000e+00
       25  2    1    2    0    0 +0.0000000000e+00 -7.1054273576e-15 -2.5430535932e+02 2.8336470727e+02 1.2499736616e+02 0.0000e+00 0.0000e+00
  9000006  2    3    3    0    0 -3.0957603002e+01 +3.2111946060e+01 -8.6820115314e+01 1.0548593612e+02 4.0000000407e+01 0.0000e+00 0.0000e+00
  9000006  2    3    3    0    0 +3.0957603002e+01 -3.2111946060e+01 -1.6748524400e+02 1.7787877115e+02 4.0000000035e+01 0.0000e+00 0.0000e+00
      -11  1    5    5    0    0 +4.3150598590e+00 +9.5370036314e+00 -2.8529729874e+01 3.0389466375e+01 0.0000000000e+00 0.0000e+00 1.0000e+00
       13  1    4    4    0    0 -3.0933864595e+01 +2.1394011106e+01 -8.6983477850e+01 9.4766729968e+01 0.0000000000e+00 0.0000e+00 1.0000e+00
      -11  1    4    4    0    0 -2.3738406670e-02 +1.0717934954e+01 +1.6336253641e-01 1.0719206151e+01 0.0000000000e+00 0.0000e+00 1.0000e+00
       13  1    5    5    0    0 +2.6642543143e+01 -4.1648949692e+01 -1.3895551413e+02 1.4748930477e+02 0.0000000000e+00 0.0000e+00 1.0000e+00
<mgrwt>
<rscale>  0 0.12499737E+03</rscale>
<asrwt>0</asrwt>
<pdfrwt beam="1">  1       21 0.36324185E-02 0.12499737E+03</pdfrwt>
<pdfrwt beam="2">  1       21 0.67208758E-01 0.12499737E+03</pdfrwt>
<totfact> 0.93631423E+05</totfact>
</mgrwt>
</event>
<event>
 9      1 +9.5563000e+06 1.24996400e+02 7.81860800e-03 1.23507500e-01
       21 -1    0    0  502  501 +0.0000000000e+00 +0.0000000000e+00 +7.0335534154e+01 7.0335534154e+01 0.0000000000e+00 0.0000e+00 1.0000e+00
       21 -1    0    0  501  502 -0.0000000000e+00 -0.0000000000e+00 -5.5534184753e+01 5.5534184753e+01 0.0000000000e+00 0.0000e+00 1.0000e+00
       25  2    1    2    0    0 -7.1054273576e-15 +0.0000000000e+00 +1.4801349401e+01 1.2586971891e+02 1.2499642472e+02 0.0000e+00 0.0000e+00
  9000006  2    3    3    0    0 -4.2224243506e+01 -1.6784363442e+01 -8.2457376118e+00 6.1094956677e+01 3.9999999335e+01 0.0000e+00 0.0000e+00
  9000006  2    3    3    0    0 +4.2224243506e+01 +1.6784363442e+01 +2.3047087013e+01 6.4774762231e+01 4.0000000082e+01 0.0000e+00 0.0000e+00
      -11  1    5    5    0    0 +3.6549528742e+01 +1.0554320272e+01 -2.2515741565e+00 3.8109464886e+01 0.0000000000e+00 0.0000e+00 1.0000e+00
       13  1    4    4    0    0 -2.8080042310e+01 -2.9459589516e+01 -8.3262777346e-01 4.0706872388e+01 0.0000000000e+00 0.0000e+00 1.0000e+00
      -11  1    4    4    0    0 -1.4144201196e+01 +1.2675226074e+01 -7.4131098384e+00 2.0388084289e+01 0.0000000000e+00 0.0000e+00 1.0000e+00
       13  1    5    5    0    0 +5.6747147632e+00 +6.2300431701e+00 +2.5298661170e+01 2.6665297345e+01 0.0000000000e+00 0.0000e+00 1.0000e+00
<mgrwt>
<rscale>  0 0.12499642E+03</rscale>
<asrwt>0</asrwt>
<pdfrwt beam="1">  1       21 0.17583884E-01 0.12499642E+03</pdfrwt>
<pdfrwt beam="2">  1       21 0.13883546E-01 0.12499642E+03</pdfrwt>
<totfact> 0.13200922E+06</totfact>
</mgrwt>
</event>
<event>
 9      1 +9.5563000e+06 1.25005500e+02 7.81860800e-03 1.23506100e-01
       21 -1    0    0  502  501 +0.0000000000e+00 +0.0000000000e+00 +3.1955058846e+00 3.1955058846e+00 0.0000000000e+00 0.0000e+00 1.0000e+00
       21 -1    0    0  501  502 -0.0000000000e+00 -0.0000000000e+00 -1.2225276974e+03 1.2225276974e+03 0.0000000000e+00 0.0000e+00 1.0000e+00
       25  2    1    2    0    0 +8.8817841970e-16 +0.0000000000e+00 -1.2193321915e+03 1.2257232033e+03 1.2500551110e+02 0.0000e+00 0.0000e+00
  9000006  2    3    3    0    0 +7.2885831539e+00 +4.7456812880e+01 -6.2093963467e+02 6.2407635950e+02 4.0000000705e+01 0.0000e+00 0.0000e+00
  9000006  2    3    3    0    0 -7.2885831539e+00 -4.7456812880e+01 -5.9839255682e+02 6.0164684376e+02 4.0000000100e+01 0.0000e+00 0.0000e+00
      -11  1    5    5    0    0 -2.3244668625e+01 -2.7702474617e+01 -2.9889103672e+02 3.0107074510e+02 0.0000000000e+00 0.0000e+00 1.0000e+00
       13  1    4    4    0    0 +1.4556151743e+01 +2.6674480563e-01 -1.6653011717e+02 1.6716528536e+02 0.0000000000e+00 0.0000e+00 1.0000e+00
      -11  1    4    4    0    0 -7.2675685890e+00 +4.7190068075e+01 -4.5440951750e+02 4.5691107414e+02 0.0000000000e+00 0.0000e+00 1.0000e+00
       13  1    5    5    0    0 +1.5956085471e+01 -1.9754338263e+01 -2.9950152010e+02 3.0057609866e+02 0.0000000000e+00 0.0000e+00 1.0000e+00
<mgrwt>
<rscale>  0 0.12500551E+03</rscale>
<asrwt>0</asrwt>
<pdfrwt beam="1">  1       21 0.79887706E-03 0.12500551E+03</pdfrwt>
<pdfrwt beam="2">  1       21 0.30563170E+00 0.12500551E+03</pdfrwt>
<totfact> 0.18009404E+05</totfact>
</mgrwt>
</event>
<event>
 9      1 +9.5563000e+06 1.24999000e+02 7.81860800e-03 1.23507100e-01
       21 -1    0    0  502  501 +0.0000000000e+00 +0.0000000000e+00 +1.1629297398e+02 1.1629297398e+02 0.0000000000e+00 0.0000e+00 -1.0000e+00
       21 -1    0    0  501  502 -0.0000000000e+00 -0.0000000000e+00 -3.3589209610e+01 3.3589209610e+01 0.0000000000e+00 0.0000e+00 -1.0000e+00
       25  2    1    2    0    0 +0.0000000000e+00 +0.0000000000e+00 +8.2703764367e+01 1.4988218359e+02 1.2499902526e+02 0.0000e+00 0.0000e+00
  9000006  2    3    3    0    0 +1.8056706958e+01 -9.3757462044e+00 +9.3511148128e+01 1.0372214859e+02 4.0000000019e+01 0.0000e+00 0.0000e+00
  9000006  2    3    3    0    0 -1.8056706958e+01 +9.3757462044e+00 -1.0807383761e+01 4.6160034993e+01 4.0000000047e+01 0.0000e+00 0.0000e+00
      -11  1    4    4    0    0 +1.3185133328e+01 -2.1887286927e+01 +8.2473639871e+01 8.6341197256e+01 0.0000000000e+00 0.0000e+00 1.0000e+00
       13  1    4    4    0    0 +4.8715736299e+00 +1.2511540723e+01 +1.1037508256e+01 1.7380951337e+01 0.0000000000e+00 0.0000e+00 1.0000e+00
      -11  1    5    5    0    0 -2.6173181569e+01 -6.0093152626e+00 -2.7652482601e+00 2.6996183088e+01 0.0000000000e+00 0.0000e+00 1.0000e+00
       13  1    5    5    0    0 +8.1164746109e+00 +1.5385061467e+01 -8.0421355004e+00 1.9163851906e+01 0.0000000000e+00 0.0000e+00 1.0000e+00
<mgrwt>
<rscale>  0 0.12499903E+03</rscale>
<asrwt>0</asrwt>
<pdfrwt beam="1">  1       21 0.29073243E-01 0.12499903E+03</pdfrwt>
<pdfrwt beam="2">  1       21 0.83973027E-02 0.12499903E+03</pdfrwt>
<totfact> 0.12473035E+06</totfact>
</mgrwt>
</event>
<event>
 9      1 +9.5563000e+06 1.24999900e+02 7.81860800e-03 1.23506900e-01
       21 -1    0    0  502  501 +0.0000000000e+00 +0.0000000000e+00 +2.5985298528e+01 2.5985298528e+01 0.0000000000e+00 0.0000e+00 1.0000e+00
       21 -1    0    0  501  502 -0.0000000000e+00 -0.0000000000e+00 -1.5032509117e+02 1.5032509117e+02 0.0000000000e+00 0.0000e+00 1.0000e+00
       25  2    1    2    0    0 -7.1054273576e-15 +3.5527136788e-15 -1.2433979265e+02 1.7631038970e+02 1.2499987793e+02 0.0000e+00 0.0000e+00
  9000006  2    3    3    0    0 -3.6310551635e+01 +2.7652317044e+01 -8.3239324952e+01 1.0301403760e+02 3.9999999065e+01 0.0000e+00 0.0000e+00
  9000006  2    3    3    0    0 +3.6310551635e+01 -2.7652317044e+01 -4.1100467694e+01 7.3296352108e+01 3.9999999871e+01 0.0000e+00 0.0000e+00
      -11  1    5    5    0    0 +1.7782504533e+01 -9.4647376390e+00 +4.6665964869e+00 2.0677907264e+01 0.0000000000e+00 0.0000e+00 1.0000e+00
       13  1    4    4    0    0 -3.9242504071e+01 +2.6789056125e+01 -4.7642431646e+01 6.7286172034e+01 0.0000000000e+00 0.0000e+00 1.0000e+00
      -11  1    4    4    0    0 +2.9319524360e+00 +8.6326091934e-01 -3.5596893307e+01 3.5727865561e+01 0.0000000000e+00 0.0000e+00 1.0000e+00
       13  1    5    5    0    0 +1.8528047102e+01 -1.8187579405e+01 -4.5767064181e+01 5.2618444844e+01 0.0000000000e+00 0.0000e+00 1.0000e+00
<mgrwt>
<rscale>  0 0.12499988E+03</rscale>
<asrwt>0</asrwt>
<pdfrwt beam="1">  1       21 0.64963247E-02 0.12499988E+03</pdfrwt>
<pdfrwt beam="2">  1       21 0.37581272E-01 0.12499988E+03</pdfrwt>
<totfact> 0.11743137E+06</totfact>
</mgrwt>
</event>
<event>
 9      1 +9.5563000e+06 1.24998800e+02 7.81860800e-03 1.23507100e-01
       21 -1    0    0  502  501 +0.0000000000e+00 +0.0000000000e+00 +5.4068553334e+01 5.4068553334e+01 0.0000000000e+00 0.0000e+00 1.0000e+00
       21 -1    0    0  501  502 -0.0000000000e+00 -0.0000000000e+00 -7.2244900546e+01 7.2244900546e+01 0.0000000000e+00 0.0000e+00 1.0000e+00
       25  2    1    2    0    0 +0.0000000000e+00 -1.0658141036e-14 -1.8176347212e+01 1.2631345388e+02 1.2499883613e+02 0.0000e+00 0.0000e+00
  9000006  2    3    3    0    0 +3.4992920432e+01 +2.8832810734e+01 -2.5076769478e+01 6.5457465892e+01 4.0000000230e+01 0.0000e+00 0.0000e+00
  9000006  2    3    3    0    0 -3.4992920432e+01 -2.8832810734e+01 +6.9004222663e+00 6.0855987988e+01 3.9999999892e+01 0.0000e+00 0.0000e+00
      -11  1    4    4    0    0 +6.7099489460e+00 -9.8237101026e+00 -1.2557895520e+00 1.1962679568e+01 0.0000000000e+00 0.0000e+00 1.0000e+00
       13  1    4    4    0    0 +2.8282971486e+01 +3.8656520836e+01 -2.3820979926e+01 5.3494786324e+01 0.0000000000e+00 0.0000e+00 1.0000e+00
      -11  1    5    5    0    0 -4.0391457562e+01 -3.4087324337e+01 +7.0504846442e+00 5.3320960777e+01 0.0000000000e+00 0.0000e+00 1.0000e+00
       13  1    5    5    0    0 +5.3985371306e+00 +5.2545136031e+00 -1.5006237797e-01 7.5350272112e+00 0.0000000000e+00 0.0000e+00 1.0000e+00
<mgrwt>
<rscale>  0 0.12499884E+03</rscale>
<asrwt>0</asrwt>
<pdfrwt beam="1">  1       21 0.13517138E-01 0.12499884E+03</pdfrwt>
<pdfrwt beam="2">  1       21 0.18061225E-01 0.12499884E+03</pdfrwt>
<totfact> 0.13186317E+06</totfact>
</mgrwt>
</event>
<event>
 9      1 +9.5563000e+06 1.24990800e+02 7.81860800e-03 1.23508400e-01
       21 -1    0    0  502  501 +0.0000000000e+00 +0.0000000000e+00 +1.0916989580e+01 1.0916989580e+01 0.0000000000e+00 0.0000e+00 1.0000e+00
       21 -1    0    0  501  502 -0.0000000000e+00 -0.0000000000e+00 -3.5776141431e+02 3.5776141431e+02 0.0000000000e+00 0.0000e+00 1.0000e+00
       25  2    1    2    0    0 -1.7763568394e-15 +0.0000000000e+00 -3.4684442473e+02 3.6867840389e+02 1.2499084178e+02 0.0000e+00 0.0000e+00
  9000006  2    3    3    0    0 -1.0614985789e+00 -2.8688402139e+01 -2.8695575977e+02 2.9114903276e+02 4.0000000240e+01 0.0000e+00 0.0000e+00
  9000006  2    3    3    0    0 +1.0614985789e+00 +2.8688402139e+01 -5.9888664965e+01 7.7529371128e+01 3.9999999996e+01 0.0000e+00 0.0000e+00
      -11  1    5    5    0    0 -1.1346169443e+01 +5.2819998020e+00 -4.5890983022e+01 4.7566978101e+01 0.0000000000e+00 0.0000e+00 1.0000e+00
       13  1    4    4    0    0 +1.2746712651e+01 -1.7651399920e+01 -2.3984114742e+02 2.4082737925e+02 0.0000000000e+00 0.0000e+00 1.0000e+00
      -11  1    4    4    0    0 -1.3808211230e+01 -1.1037002219e+01 -4.7114612345e+01 5.0321653508e+01 0.0000000000e+00 0.0000e+00 1.0000e+00
       13  1    5    5    0    0 +1.2407668022e+01 +2.3406402337e+01 -1.3997681942e+01 2.9962393026e+01 0.0000000000e+00 0.0000e+00 1.0000e+00
<mgrwt>
<rscale>  0 0.12499084E+03</rscale>
<asrwt>0</asrwt>
<pdfrwt beam="1">  1       21 0.27292474E-02 0.12499084E+03</pdfrwt>
<pdfrwt beam="2">  1       21 0.89440352E-01 0.12499084E+03</pdfrwt>
<totfact> 0.79395552E+05</totfact>
</mgrwt>
</event>
<event>
 9      1 +9.5563000e+06 1.25009000e+02 7.81860800e-03 1.23505500e-01
       21 -1    0    0  502  501 +0.0000000000e+00 +0.0000000000e+00 +2.4456463939e+02 2.4456463939e+02 0.0000000000e+00 0.0000e+00 -1.0000e+00
       21 -1    0    0  501  502 -0.0000000000e+00 -0.0000000000e+00 -1.5974552943e+01 1.5974552943e+01 0.0000000000e+00 0.0000e+00 -1.0000e+00
       25  2    1    2    0    0 +0.0000000000e+00 +0.0000000000e+00 +2.2859008645e+02 2.6053919233e+02 1.2500897216e+02 0.0000e+00 0.0000e+00
  9000006  2    3    3    0    0 +2.8943786433e+01 -2.1876127628e+01 +4.8701697314e+01 7.2719757028e+01 4.0000000098e+01 0.0000e+00 0.0000e+00
  9000006  2    3    3    0    0 -2.8943786433e+01 +2.1876127628e+01 +1.7988838913e+02 1.8781943530e+02 4.0000000005e+01 0.0000e+00 0.0000e+00
      -11  1    5    5    0    0 -1.2172478312e+00 -1.0824720754e+01 +4.3991390527e+01 4.5319959313e+01 0.0000000000e+00 0.0000e+00 1.0000e+00
       13  1    4    4    0    0 +1.8630384457e+01 -2.9745504964e+01 +1.8118587792e+01 3.9498981179e+01 0.0000000000e+00 0.0000e+00 1.0000e+00
      -11  1    4    4    0    0 +1.0313401976e+01 +7.8693773361e+00 +3.0583109523e+01 3.3220775850e+01 0.0000000000e+00 0.0000e+00 1.0000e+00
       13  1    5    5    0    0 -2.7726538602e+01 +3.2700848382e+01 +1.3589699861e+02 1.4249947599e+02 0.0000000000e+00 0.0000e+00 1.0000e+00
<mgrwt>
<rscale>  0 0.12500897E+03</rscale>
<asrwt>0</asrwt>
<pdfrwt beam="1">  1       21 0.61141148E-01 0.12500897E+03</pdfrwt>
<pdfrwt beam="2">  1       21 0.39936390E-02 0.12500897E+03</pdfrwt>
<totfact> 0.98039898E+05</totfact>
</mgrwt>
</event>
<event>
 9      1 +9.5563000e+06 1.25000600e+02 7.81860800e-03 1.23506800e-01
       21 -1    0    0  502  501 +0.0000000000e+00 +0.0000000000e+00 +6.3334505072e+00 6.3334505072e+00 0.0000000000e+00 0.0000e+00 -1.0000e+00
       21 -1    0    0  501  502 -0.0000000000e+00 -0.0000000000e+00 -6.1677050733e+02 6.1677050733e+02 0.0000000000e+00 0.0000e+00 -1.0000e+00
       25  2    1    2    0    0 +0.0000000000e+00 -1.1102230246e-16 -6.1043705683e+02 6.2310395784e+02 1.2500056772e+02 0.0000e+00 0.0000e+00
  9000006  2    3    3    0    0 +4.6552910627e+01 -3.2007941353e-01 -2.4644647958e+02 2.5397469016e+02 4.0000000087e+01 0.0000e+00 0.0000e+00
  9000006  2    3    3    0    0 -4.6552910627e+01 +3.2007941353e-01 -3.6399057725e+02 3.6912926768e+02 3.9999999926e+01 0.0000e+00 0.0000e+00
      -11  1    4    4    0    0 +5.3139476767e+01 +1.3321412643e+00 -1.9627137463e+02 2.0334215277e+02 0.0000000000e+00 0.0000e+00 1.0000e+00
       13  1    4    4    0    0 -6.5865661399e+00 -1.6522206778e+00 -5.0175104948e+01 5.0632537397e+01 0.0000000000e+00 0.0000e+00 1.0000e+00
      -11  1    5    5    0    0 +1.4637363411e+00 -8.4244086829e-01 -1.4164558818e+02 1.4165565602e+02 0.0000000000e+00 0.0000e+00 1.0000e+00
       13  1    5    5    0    0 -4.8016646968e+01 +1.1625202818e+00 -2.2234498906e+02 2.2747361166e+02 0.0000000000e+00 0.0000e+00 1.0000e+00
<mgrwt>
<rscale>  0 0.12500057E+03</rscale>
<asrwt>0</asrwt>
<pdfrwt beam="1">  1       21 0.15833626E-02 0.12500057E+03</pdfrwt>
<pdfrwt beam="2">  1       21 0.15419263E+00 0.12500057E+03</pdfrwt>
<totfact> 0.50896419E+05</totfact>
</mgrwt>
</event>
<event>
 9      1 +9.5563000e+06 1.25000000e+02 7.81860800e-03 1.23506900e-01
       21 -1    0    0  502  501 +0.0000000000e+00 +0.0000000000e+00 +2.3807546654e+02 2.3807546654e+02 0.0000000000e+00 0.0000e+00 -1.0000e+00
       21 -1    0    0  501  502 -0.0000000000e+00 -0.0000000000e+00 -1.6407623227e+01 1.6407623227e+01 0.0000000000e+00 0.0000e+00 -1.0000e+00
       25  2    1    2    0    0 +7.1054273576e-15 +3.5527136788e-15 +2.2166784331e+02 2.5448308976e+02 1.2500004087e+02 0.0000e+00 0.0000e+00
  9000006  2    3    3    0    0 +4.0107346192e+01 +2.6218560561e+01 +1.0431902506e+02 1.2156673525e+02 3.9999999935e+01 0.0000e+00 0.0000e+00
  9000006  2    3    3    0    0 -4.0107346192e+01 -2.6218560561e+01 +1.1734881825e+02 1.3291635451e+02 4.0000000185e+01 0.0000e+00 0.0000e+00
      -11  1    4    4    0    0 +6.0100993292e+00 -1.0231765392e+01 +1.3813156518e+01 1.8210261118e+01 0.0000000000e+00 0.0000e+00 1.0000e+00
       13  1    4    4    0    0 +3.4097246862e+01 +3.6450325953e+01 +9.0505868538e+01 1.0335647413e+02 0.0000000000e+00 0.0000e+00 1.0000e+00
      -11  1    5    5    0    0 -3.4155792032e+01 -3.6828241360e+01 +9.5908887818e+01 1.0826565593e+02 0.0000000000e+00 0.0000e+00 1.0000e+00
       13  1    5    5    0    0 -5.9515541595e+00 +1.0609680800e+01 +2.1439930435e+01 2.4650698583e+01 0.0000000000e+00 0.0000e+00 1.0000e+00
<mgrwt>
<rscale>  0 0.12500004E+03</rscale>
<asrwt>0</asrwt>
<pdfrwt beam="1">  1       21 0.59518856E-01 0.12500004E+03</pdfrwt>
<pdfrwt beam="2">  1       21 0.41019066E-02 0.12500004E+03</pdfrwt>
<totfact> 0.99292347E+05</totfact>
</mgrwt>
</event>
<event>
 9      1 +9.5563000e+06 1.25026600e+02 7.81860800e-03 1.23502800e-01
       21 -1    0    0  502  501 +0.0000000000e+00 +0.0000000000e+00 +9.4974778636e+01 9.4974778636e+01 0.0000000000e+00 0.0000e+00 -1.0000e+00
       21 -1    0    0  501  502 -0.0000000000e+00 -0.0000000000e+00 -4.1146849796e+01 4.1146849796e+01 0.0000000000e+00 0.0000e+00 -1.0000e+00
       25  2    1    2    0    0 +3.5527136788e-15 +3.5527136788e-15 +5.3827928841e+01 1.3612162843e+02 1.2502660438e+02 0.0000e+00 0.0000e+00
  9000006  2    3    3    0    0 +7.3759134633e+00 +1.3039901290e+01 +7.6609606649e+01 8.7712456050e+01 3.9999999879e+01 0.0000e+00 0.0000e+00
  9000006  2    3    3    0    0 -7.3759134633e+00 -1.3039901290e+01 -2.2781677809e+01 4.8409172382e+01 4.0000000023e+01 0.0000e+00 0.0000e+00
      -11  1    4    4    0    0 +4.2392919972e-01 +1.0428629812e+01 -3.0351250101e-01 1.0441654829e+01 0.0000000000e+00 0.0000e+00 1.0000e+00
       13  1    4    4    0    0 +6.9519842636e+00 +2.6112714781e+00 +7.6913119150e+01 7.7270801221e+01 0.0000000000e+00 0.0000e+00 1.0000e+00
      -11  1    5    5    0    0 +1.4956696161e+01 -1.3262531407e+01 -7.5136705846e+00 2.1355391474e+01 0.0000000000e+00 0.0000e+00 1.0000e+00
       13  1    5    5    0    0 -2.2332609624e+01 +2.2263011702e-01 -1.5268007224e+01 2.7053780907e+01 0.0000000000e+00 0.0000e+00 1.0000e+00
<mgrwt>
<rscale>  0 0.12502660E+03</rscale>
<asrwt>0</asrwt>
<pdfrwt beam="1">  1       21 0.23743694E-01 0.12502660E+03</pdfrwt>
<pdfrwt beam="2">  1       21 0.10286713E-01 0.12502660E+03</pdfrwt>
<totfact> 0.12871729E+06</totfact>
</mgrwt>
</event>
<event>
 9      1 +9.5563000e+06 1.25003800e+02 7.81860800e-03 1.23506300e-01
       21 -1    0    0  502  501 +0.0000000000e+00 +0.0000000000e+00 +4.9441185860e+01 4.9441185860e+01 0.0000000000e+00 0.0000e+00 1.0000e+00
       21 -1    0    0  501  502 -0.0000000000e+00 -0.0000000000e+00 -7.9012882184e+01 7.9012882184e+01 0.0000000000e+00 0.0000e+00 1.0000e+00
       25  2    1    2    0    0 +0.0000000000e+00 +0.0000000000e+00 -2.9571696324e+01 1.2845406804e+02 1.2500384944e+02 0.0000e+00 0.0000e+00
  9000006  2    3    3    0    0 +4.3533226021e+01 +1.3928920447e+01 -2.9934999098e+01 6.7714553843e+01 4.0000000481e+01 0.0000e+00 0.0000e+00
  9000006  2    3    3    0    0 -4.3533226021e+01 -1.3928920447e+01 +3.6330277467e-01 6.0739514202e+01 4.0000000049e+01 0.0000e+00 0.0000e+00
      -11  1    4    4    0    0 +7.0518566725e+00 -1.2610959417e+01 -1.3280091875e+01 1.9624622803e+01 0.0000000000e+00 0.0000e+00 1.0000e+00
       13  1    4    4    0    0 +3.6481369349e+01 +2.6539879865e+01 -1.6654907224e+01 4.8089931040e+01 0.0000000000e+00 0.0000e+00 1.0000e+00
      -11  1    5    5    0    0 -4.4109811363e+01 -2.1792746643e+01 +7.9025777733e+00 4.9830211722e+01 0.0000000000e+00 0.0000e+00 1.0000e+00
       13  1    5    5    0    0 +5.7658534212e-01 +7.8638261957e+00 -7.5392749986e+00 1.0909302480e+01 0.0000000000e+00 0.0000e+00 1.0000e+00
<mgrwt>
<rscale>  0 0.12500385E+03</rscale>
<asrwt>0</asrwt>
<pdfrwt beam="1">  1       21 0.12360297E-01 0.12500385E+03</pdfrwt>
<pdfrwt beam="2">  1       21 0.19753220E-01 0.12500385E+03</pdfrwt>
<totfact> 0.13117092E+06</totfact>
</mgrwt>
</event>
<event>
 9      1 +9.5563000e+06 1.25003800e+02 7.81860800e-03 1.23506300e-01
       21 -1    0    0  502  501 +0.0000000000e+00 +0.0000000000e+00 +3.4611149427e+01 3.4611149427e+01 0.0000000000e+00 0.0000e+00 1.0000e+00
       21 -1    0    0  501  502 -0.0000000000e+00 -0.0000000000e+00 -1.1286782239e+02 1.1286782239e+02 0.0000000000e+00 0.0000e+00 1.0000e+00
       25  2    1    2    0    0 +0.0000000000e+00 -3.5527136788e-15 -7.8256672963e+01 1.4747897182e+02 1.2500376100e+02 0.0000e+00 0.0000e+00
  9000006  2    3    3    0    0 -3.2552963321e+01 -2.4111002316e+01 -8.6939548205e+00 5.7590109344e+01 3.9999999877e+01 0.0000e+00 0.0000e+00
  9000006  2    3    3    0    0 +3.2552963321e+01 +2.4111002316e+01 -6.9562718142e+01 8.9888862473e+01 3.9999999847e+01 0.0000e+00 0.0000e+00
      -11  1    4    4    0    0 +5.6324498139e+00 -1.6841573437e+01 -5.4870514390e+00 1.8586845355e+01 0.0000000000e+00 0.0000e+00 1.0000e+00
       13  1    4    4    0    0 -3.8185413135e+01 -7.2694288784e+00 -3.2069033815e+00 3.9003263989e+01 0.0000000000e+00 0.0000e+00 1.0000e+00
      -11  1    5    5    0    0 -6.2978721873e+00 +1.5829815309e+01 -2.4144117159e+01 2.9549697802e+01 0.0000000000e+00 0.0000e+00 1.0000e+00
       13  1    5    5    0    0 +3.8850835508e+01 +8.2811870062e+00 -4.5418600983e+01 6.0339164671e+01 0.0000000000e+00 0.0000e+00 1.0000e+00
<mgrwt>
<rscale>  0 0.12500376E+03</rscale>
<asrwt>0</asrwt>
<pdfrwt beam="1">  1       21 0.86527875E-02 0.12500376E+03</pdfrwt>
<pdfrwt beam="2">  1       21 0.28216955E-01 0.12500376E+03</pdfrwt>
<totfact> 0.12541654E+06</totfact>
</mgrwt>
</event>
<event>
 9      1 +9.5563000e+06 1.25002200e+02 7.81860800e-03 1.23506600e-01
       21 -1    0    0  502  501 +0.0000000000e+00 +0.0000000000e+00 +3.8163769935e+01 3.8163769935e+01 0.0000000000e+00 0.0000e+00 -1.0000e+00
       21 -1    0    0  501  502 -0.0000000000e+00 -0.0000000000e+00 -1.0235847558e+02 1.0235847558e+02 0.0000000000e+00 0.0000e+00 -1.0000e+00
       25  2    1    2    0    0 +0.0000000000e+00 +0.0000000000e+00 -6.4194705640e+01 1.4052224551e+02 1.2500216499e+02 0.0000e+00 0.0000e+00
  9000006  2    3    3    0    0 -3.5150700023e+01 +2.5245406853e+01 -5.5502619522e+01 8.0953338721e+01 3.9999999962e+01 0.0000e+00 0.0000e+00
  9000006  2    3    3    0    0 +3.5150700023e+01 -2.5245406853e+01 -8.6920861173e+00 5.9568906790e+01 4.0000000197e+01 0.0000e+00 0.0000e+00
      -11  1    5    5    0    0 +1.9212728463e+01 -1.7424639334e+01 +1.5000589381e+01 2.9962721384e+01 0.0000000000e+00 0.0000e+00 1.0000e+00
       13  1    4    4    0    0 +6.2047716360e+00 +1.5125029032e+01 -1.4831859312e+01 2.2073734277e+01 0.0000000000e+00 0.0000e+00 1.0000e+00
      -11  1    4    4    0    0 -4.1355471659e+01 +1.0120377820e+01 -4.0670760211e+01 5.8879604444e+01 0.0000000000e+00 0.0000e+00 1.0000e+00
       13  1    5    5    0    0 +1.5937971560e+01 -7.8207675184e+00 -2.3692675499e+01 2.9606185406e+01 0.0000000000e+00 0.0000e+00 1.0000e+00
<mgrwt>
<rscale>  0 0.12500216E+03</rscale>
<asrwt>0</asrwt>
<pdfrwt beam="1">  1       21 0.95409425E-02 0.12500216E+03</pdfrwt>
<pdfrwt beam="2">  1       21 0.25589619E-01 0.12500216E+03</pdfrwt>
<totfact> 0.12747600E+06</totfact>
</mgrwt>
</event>
<event>
 9      1 +9.5563000e+06 1.24999200e+02 7.81860800e-03 1.23507100e-01
       21 -1    0    0  502  501 +0.0000000000e+00 +0.0000000000e+00 +3.6516517077e+02 3.6516517077e+02 0.0000000000e+00 0.0000e+00 1.0000e+00
       21 -1    0    0  501  502 -0.0000000000e+00 -0.0000000000e+00 -1.0697071555e+01 1.0697071555e+01 0.0000000000e+00 0.0000e+00 1.0000e+00
       25  2    1    2    0    0 -3.5527136788e-15 +0.0000000000e+00 +3.5446809921e+02 3.7586224232e+02 1.2499916738e+02 0.0000e+00 0.0000e+00
  9000006  2    3    3    0    0 -3.0235240062e+01 -1.1304587306e+01 +7.0319846906e+01 8.7102493174e+01 4.0000000156e+01 0.0000e+00 0.0000e+00
  9000006  2    3    3    0    0 +3.0235240062e+01 +1.1304587306e+01 +2.8414825231e+02 2.8875974915e+02 4.0000000051e+01 0.0000e+00 0.0000e+00
      -11  1    4    4    0    0 -4.3423384902e+00 -1.5087967216e+01 +5.4061490868e+01 5.6295181438e+01 0.0000000000e+00 0.0000e+00 1.0000e+00
       13  1    4    4    0    0 -2.5892901572e+01 +3.7833799103e+00 +1.6258356038e+01 3.0807311736e+01 0.0000000000e+00 0.0000e+00 1.0000e+00
      -11  1    5    5    0    0 +2.1036095186e+01 -1.2076466835e+01 +1.7982067472e+02 1.8144925849e+02 0.0000000000e+00 0.0000e+00 1.0000e+00
       13  1    5    5    0    0 +9.1991448762e+00 +2.3381054141e+01 +1.0432757759e+02 1.0731049065e+02 0.0000000000e+00 0.0000e+00 1.0000e+00
<mgrwt>
<rscale>  0 0.12499917E+03</rscale>
<asrwt>0</asrwt>
<pdfrwt beam="1">  1       21 0.91291251E-01 0.12499917E+03</pdfrwt>
<pdfrwt beam="2">  1       21 0.26742691E-02 0.12499917E+03</pdfrwt>
<totfact> 0.78320848E+05</totfact>
</mgrwt>
</event>
<event>
 9      1 +9.5563000e+06 1.24997800e+02 7.81860800e-03 1.23507300e-01
       21 -1    0    0  502  501 +0.0000000000e+00 +0.0000000000e+00 +2.0583898920e+02 2.0583898920e+02 0.0000000000e+00 0.0000e+00 1.0000e+00
       21 -1    0    0  501  502 -0.0000000000e+00 -0.0000000000e+00 -1.8976545891e+01 1.8976545891e+01 0.0000000000e+00 0.0000e+00 1.0000e+00
       25  2    1    2    0    0 +0.0000000000e+00 -7.1054273576e-15 +1.8686244331e+02 2.2481553510e+02 1.2499780838e+02 0.0000e+00 0.0000e+00
  9000006  2    3    3    0    0 -3.2416055707e+01 +3.5349989663e+01 +9.7721668238e+01 1.1597390602e+02 3.9999999958e+01 0.0000e+00 0.0000e+00
  9000006  2    3    3    0    0 +3.2416055707e+01 -3.5349989663e+01 +8.9140775075e+01 1.0884162908e+02 4.0000000035e+01 0.0000e+00 0.0000e+00
      -11  1    4    4    0    0 -1.6806557000e+01 +3.5043656985e+01 +3.8414068099e+01 5.4645758125e+01 0.0000000000e+00 0.0000e+00 1.0000e+00
       13  1    4    4    0    0 -1.5609498707e+01 +3.0633267813e-01 +5.9307600139e+01 6.1328147892e+01 0.0000000000e+00 0.0000e+00 1.0000e+00
      -11  1    5    5    0    0 -3.3663354818e+00 -2.0853588170e+01 +4.7894176427e+01 5.2345548901e+01 0.0000000000e+00 0.0000e+00 1.0000e+00
       13  1    5    5    0    0 +3.5782391189e+01 -1.4496401493e+01 +4.1246598648e+01 5.6496080178e+01 0.0000000000e+00 0.0000e+00 1.0000e+00
<mgrwt>
<rscale>  0 0.12499781E+03</rscale>
<asrwt>0</asrwt>
<pdfrwt beam="1">  1       21 0.51459740E-01 0.12499781E+03</pdfrwt>
<pdfrwt beam="2">  1       21 0.47441371E-02 0.12499781E+03</pdfrwt>
<totfact> 0.10564592E+06</totfact>
</mgrwt>
</event>
<event>
 9      1 +9.5563000e+06 1.24993600e+02 7.81860800e-03 1.23507900e-01
       21 -1    0    0  502  501 +0.0000000000e+00 +0.0000000000e+00 +4.5496126791e+01 4.5496126791e+01 0.0000000000e+00 0.0000e+00 -1.0000e+00
       21 -1    0    0  501  502 -0.0000000000e+00 -0.0000000000e+00 -8.5850157469e+01 8.5850157469e+01 0.0000000000e+00 0.0000e+00 -1.0000e+00
       25  2    1    2    0    0 +0.0000000000e+00 +0.0000000000e+00 -4.0354030678e+01 1.3134628426e+02 1.2499359422e+02 0.0000e+00 0.0000e+00
  9000006  2    3    3    0    0 -9.5832922032e+00 -4.3257299632e+01 -7.2069575689e-01 5.9695501232e+01 4.0000000052e+01 0.0000e+00 0.0000e+00
  9000006  2    3    3    0    0 +9.5832922032e+00 +4.3257299632e+01 -3.9633334921e+01 7.1650783027e+01 4.0000000131e+01 0.0000e+00 0.0000e+00
      -11  1    5    5    0    0 -1.4122557553e+01 +2.2019372175e+01 -9.5276501812e+00 2.7840177815e+01 0.0000000000e+00 0.0000e+00 1.0000e+00
       13  1    4    4    0    0 +1.3716635889e+01 -5.7348853513e+00 -4.0296096831e+00 1.5403660743e+01 0.0000000000e+00 0.0000e+00 1.0000e+00
      -11  1    4    4    0    0 -2.3299928092e+01 -3.7522414280e+01 +3.3089139262e+00 4.4291840489e+01 0.0000000000e+00 0.0000e+00 1.0000e+00
       13  1    5    5    0    0 +2.3705849756e+01 +2.1237927457e+01 -3.0105684740e+01 4.3810605211e+01 0.0000000000e+00 0.0000e+00 1.0000e+00
<mgrwt>
<rscale>  0 0.12499359E+03</rscale>
<asrwt>0</asrwt>
<pdfrwt beam="1">  1       21 0.11374032E-01 0.12499359E+03</pdfrwt>
<pdfrwt beam="2">  1       21 0.21462539E-01 0.12499359E+03</pdfrwt>
<totfact> 0.13029767E+06</totfact>
</mgrwt>
</event>
<event>
 9      1 +9.5563000e+06 1.25003400e+02 7.81860800e-03 1.23506400e-01
       21 -1    0    0  502  501 +0.0000000000e+00 +0.0000000000e+00 +1.3375078296e+01 1.3375078296e+01 0.0000000000e+00 0.0000e+00 1.0000e+00
       21 -1    0    0  501  502 -0.0000000000e+00 -0.0000000000e+00 -2.9207007412e+02 2.9207007412e+02 0.0000000000e+00 0.0000e+00 1.0000e+00
       25  2    1    2    0    0 -7.1054273576e-15 +0.0000000000e+00 -2.7869499582e+02 3.0544515242e+02 1.2500336170e+02 0.0000e+00 0.0000e+00
  9000006  2    3    3    0    0 +4.2122143071e+01 -1.2183166981e+01 -9.1480198441e+01 1.0904738041e+02 3.9999999665e+01 0.0000e+00 0.0000e+00
  9000006  2    3    3    0    0 -4.2122143071e+01 +1.2183166981e+01 -1.8721479738e+02 1.9639777200e+02 3.9999999935e+01 0.0000e+00 0.0000e+00
      -11  1    4    4    0    0 +1.5451104848e+01 -1.8724714866e+01 -7.0279720922e+01 7.4354493884e+01 0.0000000000e+00 0.0000e+00 1.0000e+00
       13  1    4    4    0    0 +2.6671038222e+01 +6.5415478851e+00 -2.1200477519e+01 3.4692886528e+01 0.0000000000e+00 0.0000e+00 1.0000e+00
      -11  1    5    5    0    0 -2.4509673380e+01 +2.6527628093e+01 -1.0191735776e+02 1.0812764195e+02 0.0000000000e+00 0.0000e+00 1.0000e+00
       13  1    5    5    0    0 -1.7612469690e+01 -1.4344461112e+01 -8.5297439626e+01 8.8270130055e+01 0.0000000000e+00 0.0000e+00 1.0000e+00
<mgrwt>
<rscale>  0 0.12500336E+03</rscale>
<asrwt>0</asrwt>
<pdfrwt beam="1">  1       21 0.33437696E-02 0.12500336E+03</pdfrwt>
<pdfrwt beam="2">  1       21 0.73017517E-01 0.12500336E+03</pdfrwt>
<totfact> 0.89599285E+05</totfact>
</mgrwt>
</event>
<event>
 9      1 +9.5563000e+06 1.24989800e+02 7.81860800e-03 1.23508500e-01
       21 -1    0    0  502  501 +0.0000000000e+00 +0.0000000000e+00 +8.0302134878e+02 8.0302134878e+02 0.0000000000e+00 0.0000e+00 1.0000e+00
       21 -1    0    0  501  502 -0.0000000000e+00 -0.0000000000e+00 -4.8636447798e+00 4.8636447798e+00 0.0000000000e+00 0.0000e+00 1.0000e+00
       25  2    1    2    0    0 +0.0000000000e+00 +7.1054273576e-15 +7.9815770400e+02 8.0788499356e+02 1.2498976904e+02 0.0000e+00 0.0000e+00
  9000006  2    3    3    0    0 +2.8499559149e+01 -3.8128711004e+01 +3.5841092614e+02 3.6376423058e+02 3.9999999959e+01 0.0000e+00 0.0000e+00
  9000006  2    3    3    0    0 -2.8499559149e+01 +3.8128711004e+01 +4.3974677786e+02 4.4412076298e+02 3.9999999985e+01 0.0000e+00 0.0000e+00
      -11  1    5    5    0    0 -2.8766843440e+01 +1.9495831303e+01 +1.5885780187e+02 1.6261432881e+02 0.0000000000e+00 0.0000e+00 1.0000e+00
       13  1    4    4    0    0 +1.5745827689e+01 -4.0371712315e+01 +3.2591464935e+02 3.2878285373e+02 0.0000000000e+00 0.0000e+00 1.0000e+00
      -11  1    4    4    0    0 +1.2753731460e+01 +2.2430013109e+00 +3.2496276786e+01 3.4981376845e+01 0.0000000000e+00 0.0000e+00 1.0000e+00
       13  1    5    5    0    0 +2.6728429099e-01 +1.8632879701e+01 +2.8088897599e+02 2.8150643417e+02 0.0000000000e+00 0.0000e+00 1.0000e+00
<mgrwt>
<rscale>  0 0.12498977E+03</rscale>
<asrwt>0</asrwt>
<pdfrwt beam="1">  1       21 0.20075488E+00 0.12498977E+03</pdfrwt>
<pdfrwt beam="2">  1       21 0.12159139E-02 0.12498977E+03</pdfrwt>
<totfact> 0.37576262E+05</totfact>
</mgrwt>
</event>
<event>
 9      1 +9.5563000e+06 1.25004700e+02 7.81860800e-03 1.23506200e-01
       21 -1    0    0  502  501 +0.0000000000e+00 +0.0000000000e+00 +4.5404986135e+02 4.5404986135e+02 0.0000000000e+00 0.0000e+00 1.0000e+00
       21 -1    0    0  501  502 -0.0000000000e+00 -0.0000000000e+00 -8.6037796186e+00 8.6037796186e+00 0.0000000000e+00 0.0000e+00 1.0000e+00
       25  2    1    2    0    0 -7.1054273576e-15 +3.5527136788e-15 +4.4544608173e+02 4.6265364097e+02 1.2500471900e+02 0.0000e+00 0.0000e+00
  9000006  2    3    3    0    0 -2.8044176126e+01 +1.2841718291e+01 +3.5896935619e+02 3.6250570233e+02 3.9999999963e+01 0.0000e+00 0.0000e+00
  9000006  2    3    3    0    0 +2.8044176126e+01 -1.2841718291e+01 +8.6476725544e+01 1.0014793864e+02 4.0000000119e+01 0.0000e+00 0.0000e+00
      -11  1    4    4    0    0 +6.4383496838e+00 -7.9496755916e+00 +6.9156746189e+01 6.9909264279e+01 0.0000000000e+00 0.0000e+00 1.0000e+00
       13  1    4    4    0    0 -3.4482525809e+01 +2.0791393882e+01 +2.8981261000e+02 2.9259643805e+02 0.0000000000e+00 0.0000e+00 1.0000e+00
      -11  1    5    5    0    0 +5.1612024378e+00 -8.4570820933e+00 +7.2084024813e+01 7.2761713018e+01 0.0000000000e+00 0.0000e+00 1.0000e+00
       13  1    5    5    0    0 +2.2882973688e+01 -4.3846361972e+00 +1.4392700731e+01 2.7386225620e+01 0.0000000000e+00 0.0000e+00 1.0000e+00
<mgrwt>
<rscale>  0 0.12500472E+03</rscale>
<asrwt>0</asrwt>
<pdfrwt beam="1">  1       21 0.11351238E+00 0.12500472E+03</pdfrwt>
<pdfrwt beam="2">  1       21 0.21509464E-02 0.12500472E+03</pdfrwt>
<totfact> 0.66882839E+05</totfact>
</mgrwt>
</event>
<event>
 9      1 +9.5563000e+06 1.25075500e+02 7.81860800e-03 1.23495100e-01
       21 -1    0    0  502  501 +0.0000000000e+00 +0.0000000000e+00 +1.1391473734e+01 1.1391473734e+01 0.0000000000e+00 0.0000e+00 -1.0000e+00
       21 -1    0    0  501  502 -0.0000000000e+00 -0.0000000000e+00 -3.4332417884e+02 3.4332417884e+02 0.0000000000e+00 0.0000e+00 -1.0000e+00
       25  2    1    2    0    0 +1.7763568394e-15 +0.0000000000e+00 -3.3193270510e+02 3.5471565257e+02 1.2507547106e+02 0.0000e+00 0.0000e+00
  9000006  2    3    3    0    0 +9.0954750249e+00 +3.5420800986e+01 -2.5445757069e+02 2.6016536297e+02 4.0000000009e+01 0.0000e+00 0.0000e+00
  9000006  2    3    3    0    0 -9.0954750249e+00 -3.5420800986e+01 -7.7475134411e+01 9.4550289597e+01 4.0000000030e+01 0.0000e+00 0.0000e+00
      -11  1    5    5    0    0 -1.9430825100e+01 -2.3683351903e+01 -7.1539311071e+01 7.7822433462e+01 0.0000000000e+00 0.0000e+00 1.0000e+00
       13  1    4    4    0    0 +1.2852681734e+01 -4.2736928736e+00 -8.5548191112e+01 8.6613791518e+01 0.0000000000e+00 0.0000e+00 1.0000e+00
      -11  1    4    4    0    0 -3.7572067087e+00 +3.9694493859e+01 -1.6890937958e+02 1.7355157146e+02 0.0000000000e+00 0.0000e+00 1.0000e+00
       13  1    5    5    0    0 +1.0335350075e+01 -1.1737449083e+01 -5.9358233400e+00 1.6727856135e+01 0.0000000000e+00 0.0000e+00 1.0000e+00
<mgrwt>
<rscale>  0 0.12507547E+03</rscale>
<asrwt>0</asrwt>
<pdfrwt beam="1">  1       21 0.28478684E-02 0.12507547E+03</pdfrwt>
<pdfrwt beam="2">  1       21 0.85831046E-01 0.12507547E+03</pdfrwt>
<totfact> 0.81331116E+05</totfact>
</mgrwt>
</event>
<event>
 9      1 +9.5563000e+06 1.24994100e+02 7.81860800e-03 1.23507900e-01
       21 -1    0    0  502  501 +0.0000000000e+00 +0.0000000000e+00 +4.0790650180e+01 4.0790650180e+01 0.0000000000e+00 0.0000e+00 1.0000e+00
       21 -1    0    0  501  502 -0.0000000000e+00 -0.0000000000e+00 -9.5754323679e+01 9.5754323679e+01 0.0000000000e+00 0.0000e+00 1.0000e+00
       25  2    1    2    0    0 -8.8817841970e-16 +0.0000000000e+00 -5.4963673499e+01 1.3654497386e+02 1.2499409779e+02 0.0000e+00 0.0000e+00
  9000006  2    3    3    0    0 -3.5135801624e+00 +4.7848861940e+01 -2.5290924455e+01 6.7390575387e+01 3.9999999459e+01 0.0000e+00 0.0000e+00
  9000006  2    3    3    0    0 +3.5135801624e+00 -4.7848861940e+01 -2.9672749043e+01 6.9154398472e+01 3.9999999471e+01 0.0000e+00 0.0000e+00
      -11  1    5    5    0    0 -1.0359808498e+01 -3.6730140694e+01 -3.3713604821e+01 5.0921861882e+01 0.0000000000e+00 0.0000e+00 1.0000e+00
       13  1    4    4    0    0 -9.8782399154e+00 +4.3250648833e+01 -3.8194945245e+00 4.4528494099e+01 0.0000000000e+00 0.0000e+00 1.0000e+00
      -11  1    4    4    0    0 +6.3646597531e+00 +4.5982131070e+00 -2.1471429931e+01 2.2862081288e+01 0.0000000000e+00 0.0000e+00 1.0000e+00
       13  1    5    5    0    0 +1.3873388661e+01 -1.1118721247e+01 +4.0408557776e+00 1.8232536590e+01 0.0000000000e+00 0.0000e+00 1.0000e+00
<mgrwt>
<rscale>  0 0.12499410E+03</rscale>
<asrwt>0</asrwt>
<pdfrwt beam="1">  1       21 0.10197663E-01 0.12499410E+03</pdfrwt>
<pdfrwt beam="2">  1       21 0.23938581E-01 0.12499410E+03</pdfrwt>
<totfact> 0.12869897E+06</totfact>
</mgrwt>
</event>
<event>
 9      1 +9.5563000e+06 1.24993200e+02 7.81860800e-03 1.23508000e-01
       21 -1    0    0  502  501 +0.0000000000e+00 +0.0000000000e+00 +9.5568318421e+01 9.5568318421e+01 0.0000000000e+00 0.0000e+00 1.0000e+00
       21 -1    0    0  501  502 -0.0000000000e+00 -0.0000000000e+00 -4.0869484600e+01 4.0869484600e+01 0.0000000000e+00 0.0000e+00 1.0000e+00
       25  2    1    2    0    0 +0.0000000000e+00 +0.0000000000e+00 +5.4698833821e+01 1.3643780302e+02 1.2499324651e+02 0.0000e+00 0.0000e+00
  9000006  2    3    3    0    0 +1.7830727658e+01 -2.8458411544e+01 -1.0115347415e+01 5.3199025227e+01 3.9999999943e+01 0.0000e+00 0.0000e+00
  9000006  2    3    3    0    0 -1.7830727658e+01 +2.8458411544e+01 +6.4814181236e+01 8.3238777794e+01 4.0000000037e+01 0.0000e+00 0.0000e+00
      -11  1    5    5    0    0 -1.7331125675e+00 +2.3864978769e+01 +1.0014071503e+01 2.5938822619e+01 0.0000000000e+00 0.0000e+00 1.0000e+00
       13  1    4    4    0    0 -8.1374922838e+00 -6.2175062656e+00 -1.5509398404e+01 1.8585413734e+01 0.0000000000e+00 0.0000e+00 1.0000e+00
      -11  1    4    4    0    0 +2.5968219941e+01 -2.2240905279e+01 +5.3940509889e+00 3.4613611493e+01 0.0000000000e+00 0.0000e+00 1.0000e+00
       13  1    5    5    0    0 -1.6097615090e+01 +4.5934327753e+00 +5.4800109733e+01 5.7299955175e+01 0.0000000000e+00 0.0000e+00 1.0000e+00
<mgrwt>
<rscale>  0 0.12499325E+03</rscale>
<asrwt>0</asrwt>
<pdfrwt beam="1">  1       21 0.23892079E-01 0.12499325E+03</pdfrwt>
<pdfrwt beam="2">  1       21 0.10217371E-01 0.12499325E+03</pdfrwt>
<totfact> 0.12873437E+06</totfact>
</mgrwt>
</event>
<event>
 9      1 +9.5563000e+06 1.25000900e+02 7.81860800e-03 1.23506800e-01
       21 -1    0    0  502  501 +0.0000000000e+00 +0.0000000000e+00 +8.6635541942e+01 8.6635541942e+01 0.0000000000e+00 0.0000e+00 -1.0000e+00
       21 -1    0    0  501  502 -0.0000000000e+00 -0.0000000000e+00 -4.5088981130e+01 4.5088981130e+01 0.0000000000e+00 0.0000e+00 -1.0000e+00
       25  2    1    2    0    0 +0.0000000000e+00 -1.7763568394e-15 +4.1546560812e+01 1.3172452307e+02 1.2500093305e+02 0.0000e+00 0.0000e+00
  9000006  2    3    3    0    0 -4.6641698039e+01 +6.9531413915e+00 +3.0345608725e+01 6.8881420829e+01 3.9999999941e+01 0.0000e+00 0.0000e+00
  9000006  2    3    3    0    0 +4.6641698039e+01 -6.9531413915e+00 +1.1200952087e+01 6.2843102243e+01 4.0000000008e+01 0.0000e+00 0.0000e+00
      -11  1    5    5    0    0 +2.2721425659e+01 -1.3758103027e+01 +2.3166071201e+01 3.5245076788e+01 0.0000000000e+00 0.0000e+00 1.0000e+00
       13  1    4    4    0    0 -2.0304098247e+01 -1.5812099435e+01 +6.0712696551e+00 2.6441240693e+01 0.0000000000e+00 0.0000e+00 1.0000e+00
      -11  1    4    4    0    0 -2.6337599792e+01 +2.2765240826e+01 +2.4274339070e+01 4.2440180136e+01 0.0000000000e+00 0.0000e+00 1.0000e+00
       13  1    5    5    0    0 +2.3920272380e+01 +6.8049616351e+00 -1.1965119114e+01 2.7598025455e+01 0.0000000000e+00 0.0000e+00 1.0000e+00
<mgrwt>
<rscale>  0 0.12500093E+03</rscale>
<asrwt>0</asrwt>
<pdfrwt beam="1">  1       21 0.21658885E-01 0.12500093E+03</pdfrwt>
<pdfrwt beam="2">  1       21 0.11272245E-01 0.12500093E+03</pdfrwt>
<totfact> 0.13015486E+06</totfact>
</mgrwt>
</event>
<event>
 8      1 +9.5563000e+06 1.25200600e+02 7.81860800e-03 1.23475600e-01
       21 -1    0    0  502  501 +0.0000000000e+00 +0.0000000000e+00 +3.4124316582e+02 3.4124316582e+02 0.0000000000e+00 0.0000e+00 -1.0000e+00
       21 -1    0    0  501  502 -0.0000000000e+00 -0.0000000000e+00 -1.1483887461e+01 1.1483887461e+01 0.0000000000e+00 0.0000e+00 -1.0000e+00
  9000006  2    1    2    0    0 +2.7845776310e+00 -2.8929855141e+01 +5.6712102229e+01 7.5239304401e+01 3.9999999956e+01 0.0000e+00 0.0000e+00
  9000006  2    1    2    0    0 -2.7845776310e+00 +2.8929855141e+01 +2.7304717613e+02 2.7748774888e+02 3.9999999929e+01 0.0000e+00 0.0000e+00
      -11  1    4    4    0    0 +1.5351034094e+01 +2.9165590167e+00 +1.3189342656e+02 1.3281579926e+02 0.0000000000e+00 0.0000e+00 1.0000e+00
       13  1    3    3    0    0 -1.3761503213e+01 -1.7372451660e+01 +4.8734182704e+01 5.3536918208e+01 0.0000000000e+00 0.0000e+00 1.0000e+00
      -11  1    3    3    0    0 +1.6546080844e+01 -1.1557403481e+01 +7.9779195245e+00 2.1702386193e+01 0.0000000000e+00 0.0000e+00 1.0000e+00
       13  1    4    4    0    0 -1.8135611725e+01 +2.6013296125e+01 +1.4115374957e+02 1.4467194962e+02 0.0000000000e+00 0.0000e+00 1.0000e+00
<mgrwt>
<rscale>  0 0.12520061E+03</rscale>
<asrwt>0</asrwt>
<pdfrwt beam="1">  1       21 0.85310758E-01 0.12520061E+03</pdfrwt>
<pdfrwt beam="2">  1       21 0.28709730E-02 0.12520061E+03</pdfrwt>
<totfact> 0.81374495E+05</totfact>
</mgrwt>
</event>
<event>
 9      1 +9.5563000e+06 1.25002500e+02 7.81860800e-03 1.23506500e-01
       21 -1    0    0  502  501 +0.0000000000e+00 +0.0000000000e+00 +2.0591305986e+02 2.0591305986e+02 0.0000000000e+00 0.0000e+00 -1.0000e+00
       21 -1    0    0  501  502 -0.0000000000e+00 -0.0000000000e+00 -1.8971128931e+01 1.8971128931e+01 0.0000000000e+00 0.0000e+00 -1.0000e+00
       25  2    1    2    0    0 +0.0000000000e+00 -3.5527136788e-15 +1.8694193093e+02 2.2488418879e+02 1.2500245129e+02 0.0000e+00 0.0000e+00
  9000006  2    3    3    0    0 -2.0916185078e+01 -3.1591798249e+01 +1.4656164054e+02 1.5657535884e+02 4.0000000022e+01 0.0000e+00 0.0000e+00
  9000006  2    3    3    0    0 +2.0916185078e+01 +3.1591798249e+01 +4.0380290388e+01 6.8308829954e+01 3.9999998538e+01 0.0000e+00 0.0000e+00
      -11  1    5    5    0    0 +1.6718984791e+00 -6.0454847422e+00 +2.0794838119e+01 2.1720230723e+01 0.0000000000e+00 0.0000e+00 1.0000e+00
       13  1    4    4    0    0 -3.1674531776e+01 -3.0839416177e+01 +1.1384865995e+02 1.2213051595e+02 0.0000000000e+00 0.0000e+00 1.0000e+00
      -11  1    4    4    0    0 +1.0758346698e+01 -7.5238207280e-01 +3.2712980588e+01 3.4444842885e+01 0.0000000000e+00 0.0000e+00 1.0000e+00
       13  1    5    5    0    0 +1.9244286599e+01 +3.7637282992e+01 +1.9585452269e+01 4.6588599231e+01 0.0000000000e+00 0.0000e+00 1.0000e+00
<mgrwt>
<rscale>  0 0.12500245E+03</rscale>
<asrwt>0</asrwt>
<pdfrwt beam="1">  1       21 0.51478258E-01 0.12500245E+03</pdfrwt>
<pdfrwt beam="2">  1       21 0.47427829E-02 0.12500245E+03</pdfrwt>
<totfact> 0.10561776E+06</totfact>
</mgrwt>
</event>
<event>
 9      1 +9.5563000e+06 1.24972500e+02 7.81860800e-03 1.23511200e-01
       21 -1    0    0  502  501 +0.0000000000e+00 +0.0000000000e+00 +8.8013282116e+00 8.8013282116e+00 0.0000000000e+00 0.0000e+00 -1.0000e+00
       21 -1    0    0  501  502 -0.0000000000e+00 -0.0000000000e+00 -4.4362947607e+02 4.4362947607e+02 0.0000000000e+00 0.0000e+00 -1.0000e+00
       25  2    1    2    0    0 +3.5527136788e-15 +0.0000000000e+00 -4.3482814786e+02 4.5243080428e+02 1.2497245494e+02 0.0000e+00 0.0000e+00
  9000006  2    3    3    0    0 +1.7016846805e+01 -4.4882012471e+01 -2.2012441834e+02 2.2882029559e+02 4.0000000068e+01 0.0000e+00 0.0000e+00
  9000006  2    3    3    0    0 -1.7016846805e+01 +4.4882012471e+01 -2.1470372952e+02 2.2361050869e+02 4.0000000122e+01 0.0000e+00 0.0000e+00
      -11  1    4    4    0    0 -9.7805530977e+00 -6.4052502583e-01 -5.2126736713e+01 5.3040231632e+01 0.0000000000e+00 0.0000e+00 1.0000e+00
       13  1    4    4    0    0 +2.6797399902e+01 -4.4241487446e+01 -1.6799768163e+02 1.7578006396e+02 0.0000000000e+00 0.0000e+00 1.0000e+00
      -11  1    5    5    0    0 +1.1798864378e+01 +2.4217299780e+01 -8.7003747195e+01 9.1078772692e+01 0.0000000000e+00 0.0000e+00 1.0000e+00
       13  1    5    5    0    0 -2.8815711183e+01 +2.0664712691e+01 -1.2769998232e+02 1.3253173600e+02 0.0000000000e+00 0.0000e+00 1.0000e+00
<mgrwt>
<rscale>  0 0.12497245E+03</rscale>
<asrwt>0</asrwt>
<pdfrwt beam="1">  1       21 0.22003321E-02 0.12497245E+03</pdfrwt>
<pdfrwt beam="2">  1       21 0.11090737E+00 0.12497245E+03</pdfrwt>
<totfact> 0.68155386E+05</totfact>
</mgrwt>
</event>
<event>
 9      1 +9.5563000e+06 1.25000000e+02 7.81860800e-03 1.23506900e-01
       21 -1    0    0  502  501 +0.0000000000e+00 +0.0000000000e+00 +6.2413896618e+00 6.2413896618e+00 0.0000000000e+00 0.0000e+00 1.0000e+00
       21 -1    0    0  501  502 -0.0000000000e+00 -0.0000000000e+00 -6.2586185393e+02 6.2586185393e+02 0.0000000000e+00 0.0000e+00 1.0000e+00
       25  2    1    2    0    0 +0.0000000000e+00 +8.8817841970e-16 -6.1962046427e+02 6.3210324359e+02 1.2499996328e+02 0.0000e+00 0.0000e+00
  9000006  2    3    3    0    0 -2.1696528481e+01 -2.4956012651e+00 -5.2609118148e+02 5.2806145344e+02 3.9999999992e+01 0.0000e+00 0.0000e+00
  9000006  2    3    3    0    0 +2.1696528481e+01 +2.4956012651e+00 -9.3529282788e+01 1.0404179016e+02 3.9999999829e+01 0.0000e+00 0.0000e+00
      -11  1    4    4    0    0 +1.1160586512e+01 +4.3995636423e+00 -1.4179014392e+02 1.4229673139e+02 0.0000000000e+00 0.0000e+00 1.0000e+00
       13  1    4    4    0    0 -3.2857114993e+01 -6.8951649074e+00 -3.8430103757e+02 3.8576472205e+02 0.0000000000e+00 0.0000e+00 1.0000e+00
      -11  1    5    5    0    0 +2.1841133811e+01 -1.5933572795e+01 -5.9098684859e+01 6.4988986915e+01 0.0000000000e+00 0.0000e+00 1.0000e+00
       13  1    5    5    0    0 -1.4460533011e-01 +1.8429174060e+01 -3.4430597930e+01 3.9052803242e+01 0.0000000000e+00 0.0000e+00 1.0000e+00
<mgrwt>
<rscale>  0 0.12499996E+03</rscale>
<asrwt>0</asrwt>
<pdfrwt beam="1">  1       21 0.15603476E-02 0.12499996E+03</pdfrwt>
<pdfrwt beam="2">  1       21 0.15646545E+00 0.12499996E+03</pdfrwt>
<totfact> 0.50143552E+05</totfact>
</mgrwt>
</event>
<event>
 9      1 +9.5563000e+06 1.25000300e+02 7.81860800e-03 1.23506900e-01
       21 -1    0    0  502  501 +0.0000000000e+00 +0.0000000000e+00 +2.5367729664e+02 2.5367729664e+02 0.0000000000e+00 0.0000e+00 -1.0000e+00
       21 -1    0    0  501  502 -0.0000000000e+00 -0.0000000000e+00 -1.5398583933e+01 1.5398583933e+01 0.0000000000e+00 0.0000e+00 -1.0000e+00
       25  2    1    2    0    0 -3.5527136788e-15 +7.1054273576e-15 +2.3827871271e+02 2.6907588057e+02 1.2500033831e+02 0.0000e+00 0.0000e+00
  9000006  2    3    3    0    0 +1.8254634552e+01 -4.2851243353e+01 +9.3961244496e+01 1.1224159744e+02 3.9999999866e+01 0.0000e+00 0.0000e+00
  9000006  2    3    3    0    0 -1.8254634552e+01 +4.2851243353e+01 +1.4431746821e+02 1.5683428313e+02 3.9999999945e+01 0.0000e+00 0.0000e+00
      -11  1    4    4    0    0 +2.0553242286e+00 -3.9875183503e+01 +8.3964801446e+01 9.2974956300e+01 0.0000000000e+00 0.0000e+00 1.0000e+00
       13  1    4    4    0    0 +1.6199310323e+01 -2.9760598492e+00 +9.9964430498e+00 1.9266641140e+01 0.0000000000e+00 0.0000e+00 1.0000e+00
      -11  1    5    5    0    0 -2.9652101916e+01 +2.3256384778e+01 +7.5550358258e+01 8.4427265820e+01 0.0000000000e+00 0.0000e+00 1.0000e+00
       13  1    5    5    0    0 +1.1397467364e+01 +1.9594858575e+01 +6.8767109952e+01 7.2407017312e+01 0.0000000000e+00 0.0000e+00 1.0000e+00
<mgrwt>
<rscale>  0 0.12500034E+03</rscale>
<asrwt>0</asrwt>
<pdfrwt beam="1">  1       21 0.63419311E-01 0.12500034E+03</pdfrwt>
<pdfrwt beam="2">  1       21 0.38496468E-02 0.12500034E+03</pdfrwt>
<totfact> 0.96366542E+05</totfact>
</mgrwt>
</event>
<event>
 9      1 +9.5563000e+06 1.25026500e+02 7.81860800e-03 1.23502800e-01
       21 -1    0    0  502  501 +0.0000000000e+00 +0.0000000000e+00 +7.2506813095e+02 7.2506813095e+02 0.0000000000e+00 0.0000e+00 1.0000e+00
       21 -1    0    0  501  502 -0.0000000000e+00 -0.0000000000e+00 -5.3897060976e+00 5.3897060976e+00 0.0000000000e+00 0.0000e+00 1.0000e+00
       25  2    1    2    0    0 +0.0000000000e+00 +0.0000000000e+00 +7.1967842486e+02 7.3045783705e+02 1.2502646322e+02 0.0000e+00 0.0000e+00
  9000006  2    3    3    0    0 +4.4627442135e+01 -5.9195359165e+00 +2.6185794982e+02 2.6869357159e+02 4.0000000379e+01 0.0000e+00 0.0000e+00
  9000006  2    3    3    0    0 -4.4627442135e+01 +5.9195359165e+00 +4.5782047503e+02 4.6176426546e+02 4.0000000027e+01 0.0000e+00 0.0000e+00
      -11  1    5    5    0    0 +3.6129518470e+00 +3.8645125173e+00 +9.6901427459e+00 1.1040232990e+01 0.0000000000e+00 0.0000e+00 1.0000e+00
       13  1    4    4    0    0 +1.2974940444e+00 -8.2885419943e+00 +9.6817634702e+00 1.2810931390e+01 0.0000000000e+00 0.0000e+00 1.0000e+00
      -11  1    4    4    0    0 +4.3329948090e+01 +2.3690060779e+00 +2.5217618635e+02 2.5588264020e+02 0.0000000000e+00 0.0000e+00 1.0000e+00
       13  1    5    5    0    0 -4.8240393982e+01 +2.0550233992e+00 +4.4813033229e+02 4.5072403247e+02 0.0000000000e+00 0.0000e+00 1.0000e+00
<mgrwt>
<rscale>  0 0.12502646E+03</rscale>
<asrwt>0</asrwt>
<pdfrwt beam="1">  1       21 0.18126670E+00 0.12502646E+03</pdfrwt>
<pdfrwt beam="2">  1       21 0.13474290E-02 0.12502646E+03</pdfrwt>
<totfact> 0.42619552E+05</totfact>
</mgrwt>
</event>
<event>
 9      1 +9.5563000e+06 1.25009000e+02 7.81860800e-03 1.23505500e-01
       21 -1    0    0  502  501 +0.0000000000e+00 +0.0000000000e+00 +4.9630366284e+02 4.9630366284e+02 0.0000000000e+00 0.0000e+00 -1.0000e+00
       21 -1    0    0  501  502 -0.0000000000e+00 -0.0000000000e+00 -7.8718142391e+00 7.8718142391e+00 0.0000000000e+00 0.0000e+00 -1.0000e+00
       25  2    1    2    0    0 +0.0000000000e+00 +0.0000000000e+00 +4.8843184860e+02 5.0417547708e+02 1.2500896352e+02 0.0000e+00 0.0000e+00
  9000006  2    3    3    0    0 -2.4596689135e+01 -9.1482134618e-01 +4.1055323796e+02 4.1323092242e+02 4.0000000333e+01 0.0000e+00 0.0000e+00
  9000006  2    3    3    0    0 +2.4596689135e+01 +9.1482134618e-01 +7.7878610641e+01 9.0944554664e+01 4.0000000164e+01 0.0000e+00 0.0000e+00
      -11  1    5    5    0    0 -4.1225750756e+00 +1.4363822871e+01 +2.0254353029e+01 2.5170495612e+01 0.0000000000e+00 0.0000e+00 1.0000e+00
       13  1    4    4    0    0 -2.2871479806e+01 +8.3749601210e+00 +1.1616016885e+02 1.1868626446e+02 0.0000000000e+00 0.0000e+00 1.0000e+00
      -11  1    4    4    0    0 -1.7252093288e+00 -9.2897814672e+00 +2.9439306911e+02 2.9454465795e+02 0.0000000000e+00 0.0000e+00 1.0000e+00
       13  1    5    5    0    0 +2.8719264210e+01 -1.3449001525e+01 +5.7624257612e+01 6.5774059052e+01 0.0000000000e+00 0.0000e+00 1.0000e+00
<mgrwt>
<rscale>  0 0.12500896E+03</rscale>
<asrwt>0</asrwt>
<pdfrwt beam="1">  1       21 0.12407581E+00 0.12500896E+03</pdfrwt>
<pdfrwt beam="2">  1       21 0.19679552E-02 0.12500896E+03</pdfrwt>
<totfact> 0.62200703E+05</totfact>
</mgrwt>
</event>
<event>
 9      1 +9.5563000e+06 1.25000900e+02 7.81860800e-03 1.23506800e-01
       21 -1    0    0  502  501 +0.0000000000e+00 +0.0000000000e+00 +4.2322284367e+01 4.2322284367e+01 0.0000000000e+00 0.0000e+00 1.0000e+00
       21 -1    0    0  501  502 -0.0000000000e+00 -0.0000000000e+00 -9.2299072976e+01 9.2299072976e+01 0.0000000000e+00 0.0000e+00 1.0000e+00
       25  2    1    2    0    0 -7.1054273576e-15 +0.0000000000e+00 -4.9976788609e+01 1.3462135734e+02 1.2500092181e+02 0.0000e+00 0.0000e+00
  9000006  2    3    3    0    0 -4.5579647185e+01 +6.8840338322e-01 -4.1261923099e+01 7.3352058104e+01 3.9999999919e+01 0.0000e+00 0.0000e+00
  9000006  2    3    3    0    0 +4.5579647185e+01 -6.8840338322e-01 -8.7148655109e+00 6.1269299239e+01 4.0000000145e+01 0.0000e+00 0.0000e+00
      -11  1    4    4    0    0 -3.8394408451e+01 +1.7625562342e+01 -2.8521620498e+01 5.0973266366e+01 0.0000000000e+00 0.0000e+00 1.0000e+00
       13  1    4    4    0    0 -7.1852387344e+00 -1.6937158959e+01 -1.2740302600e+01 2.2378791737e+01 0.0000000000e+00 0.0000e+00 1.0000e+00
      -11  1    5    5    0    0 +1.8629381633e+01 -1.2396150531e+01 -1.9785547591e+01 2.9869487801e+01 0.0000000000e+00 0.0000e+00 1.0000e+00
       13  1    5    5    0    0 +2.6950265552e+01 +1.1707747148e+01 +1.1070682080e+01 3.1399811438e+01 0.0000000000e+00 0.0000e+00 1.0000e+00
<mgrwt>
<rscale>  0 0.12500092E+03</rscale>
<asrwt>0</asrwt>
<pdfrwt beam="1">  1       21 0.10580571E-01 0.12500092E+03</pdfrwt>
<pdfrwt beam="2">  1       21 0.23074768E-01 0.12500092E+03</pdfrwt>
<totfact> 0.12926184E+06</totfact>
</mgrwt>
</event>
<event>
 9      1 +9.5563000e+06 1.25002000e+02 7.81860800e-03 1.23506600e-01
       21 -1    0    0  502  501 +0.0000000000e+00 +0.0000000000e+00 +1.8695318576e+02 1.8695318576e+02 0.0000000000e+00 0.0000e+00 1.0000e+00
       21 -1    0    0  501  502 -0.0000000000e+00 -0.0000000000e+00 -2.0894943578e+01 2.0894943578e+01 0.0000000000e+00 0.0000e+00 1.0000e+00
       25  2    1    2    0    0 -8.8817841970e-16 -3.5527136788e-15 +1.6605824218e+02 2.0784812933e+02 1.2500202027e+02 0.0000e+00 0.0000e+00
  9000006  2    3    3    0    0 -3.6843937192e+00 -2.1797339097e+01 +1.2138708356e+01 4.7286858667e+01 4.0000000166e+01 0.0000e+00 0.0000e+00
  9000006  2    3    3    0    0 +3.6843937192e+00 +2.1797339097e+01 +1.5391953382e+02 1.6056127067e+02 3.9999999971e+01 0.0000e+00 0.0000e+00
      -11  1    4    4    0    0 -3.3184496201e+00 -1.1325733939e+01 -1.4479891121e+01 1.8680246358e+01 0.0000000000e+00 0.0000e+00 1.0000e+00
       13  1    4    4    0    0 -3.6594409907e-01 -1.0471605158e+01 +2.6618599477e+01 2.8606612309e+01 0.0000000000e+00 0.0000e+00 1.0000e+00
      -11  1    5    5    0    0 +5.8259441615e+00 +3.1697331824e+01 +1.3783907086e+02 1.4155660326e+02 0.0000000000e+00 0.0000e+00 1.0000e+00
       13  1    5    5    0    0 -2.1415504423e+00 -9.8999927275e+00 +1.6080462960e+01 1.9004667409e+01 0.0000000000e+00 0.0000e+00 1.0000e+00
<mgrwt>
<rscale>  0 0.12500202E+03</rscale>
<asrwt>0</asrwt>
<pdfrwt beam="1">  1       21 0.46738291E-01 0.12500202E+03</pdfrwt>
<pdfrwt beam="2">  1       21 0.52237365E-02 0.12500202E+03</pdfrwt>
<totfact> 0.10954234E+06</totfact>
</mgrwt>
</event>
<event>
 9      1 +9.5563000e+06 1.25003100e+02 7.81860800e-03 1.23506400e-01
       21 -1    0    0  502  501 +0.0000000000e+00 +0.0000000000e+00 +1.0286971005e+02 1.0286971005e+02 0.0000000000e+00 0.0000e+00 -1.0000e+00
       21 -1    0    0  501  502 -0.0000000000e+00 -0.0000000000e+00 -3.7974680114e+01 3.7974680114e+01 0.0000000000e+00 0.0000e+00 -1.0000e+00
       25  2    1    2    0    0 +0.0000000000e+00 +3.5527136788e-15 +6.4895029937e+01 1.4084439017e+02 1.2500310928e+02 0.0000e+00 0.0000e+00
  9000006  2    3    3    0    0 +4.2610913272e+01 -1.4465341526e+01 +5.1351977402e+01 7.9132557337e+01 4.0000000154e+01 0.0000e+00 0.0000e+00
  9000006  2    3    3    0    0 -4.2610913272e+01 +1.4465341526e+01 +1.3543052535e+01 6.1711832828e+01 4.0000000046e+01 0.0000e+00 0.0000e+00
      -11  1    4    4    0    0 +2.4157543698e+01 -2.7805539622e+01 +2.6181126730e+01 4.5190555961e+01 0.0000000000e+00 0.0000e+00 1.0000e+00
       13  1    4    4    0    0 +1.8453369574e+01 +1.3340198096e+01 +2.5170850673e+01 3.3942001377e+01 0.0000000000e+00 0.0000e+00 1.0000e+00
      -11  1    5    5    0    0 -4.6423331413e+01 +2.0683253509e+01 +5.9274442396e+00 5.1166954867e+01 0.0000000000e+00 0.0000e+00 1.0000e+00
       13  1    5    5    0    0 +3.8124181407e+00 -6.2179119824e+00 +7.6156082955e+00 1.0544877961e+01 0.0000000000e+00 0.0000e+00 1.0000e+00
<mgrwt>
<rscale>  0 0.12500311E+03</rscale>
<asrwt>0</asrwt>
<pdfrwt beam="1">  1       21 0.25717427E-01 0.12500311E+03</pdfrwt>
<pdfrwt beam="2">  1       21 0.94936703E-02 0.12500311E+03</pdfrwt>
<totfact> 0.12737688E+06</totfact>
</mgrwt>
</event>
<event>
 9      1 +9.5563000e+06 1.25002900e+02 7.81860800e-03 1.23506500e-01
       21 -1    0    0  502  501 +0.0000000000e+00 +0.0000000000e+00 +2.4162079425e+01 2.4162079425e+01 0.0000000000e+00 0.0000e+00 -1.0000e+00
       21 -1    0    0  501  502 -0.0000000000e+00 -0.0000000000e+00 -1.6167606076e+02 1.6167606076e+02 0.0000000000e+00 0.0000e+00 -1.0000e+00
       25  2    1    2    0    0 +7.1054273576e-15 +3.5527136788e-15 -1.3751398133e+02 1.8583814018e+02 1.2500287710e+02 0.0000e+00 0.0000e+00
  9000006  2    3    3    0    0 +3.0190310879e+01 -1.1933039859e+01 -1.2137290806e+02 1.3185308163e+02 4.0000000170e+01 0.0000e+00 0.0000e+00
  9000006  2    3    3    0    0 -3.0190310879e+01 +1.1933039859e+01 -1.6141073276e+01 5.3985058554e+01 3.9999999866e+01 0.0000e+00 0.0000e+00
      -11  1    5    5    0    0 -4.0008000331e+01 +8.4086038469e+00 -1.0894560382e+01 4.2308818880e+01 0.0000000000e+00 0.0000e+00 1.0000e+00
       13  1    4    4    0    0 +3.5497835657e+01 -1.6356290753e+01 -1.1771792071e+02 1.2403682292e+02 0.0000000000e+00 0.0000e+00 1.0000e+00
      -11  1    4    4    0    0 -5.3075247775e+00 +4.4232508940e+00 -3.6549873493e+00 7.8162587124e+00 0.0000000000e+00 0.0000e+00 1.0000e+00
       13  1    5    5    0    0 +9.8176894515e+00 +3.5244360117e+00 -5.2465128940e+00 1.1676239674e+01 0.0000000000e+00 0.0000e+00 1.0000e+00
<mgrwt>
<rscale>  0 0.12500288E+03</rscale>
<asrwt>0</asrwt>
<pdfrwt beam="1">  1       21 0.60405199E-02 0.12500288E+03</pdfrwt>
<pdfrwt beam="2">  1       21 0.40419015E-01 0.12500288E+03</pdfrwt>
<totfact> 0.11495699E+06</totfact>
</mgrwt>
</event>
<event>
 9      1 +9.5563000e+06 1.25010300e+02 7.81860800e-03 1.23505300e-01
       21 -1    0    0  502  501 +0.0000000000e+00 +0.0000000000e+00 +9.4673957065e+01 9.4673957065e+01 0.0000000000e+00 0.0000e+00 -1.0000e+00
       21 -1    0    0  501  502 -0.0000000000e+00 -0.0000000000e+00 -4.1266800473e+01 4.1266800473e+01 0.0000000000e+00 0.0000e+00 -1.0000e+00
       25  2    1    2    0    0 +0.0000000000e+00 +0.0000000000e+00 +5.3407156593e+01 1.3594075754e+02 1.2501026032e+02 0.0000e+00 0.0000e+00
  9000006  2    3    3    0    0 -2.1821691848e+01 -3.9668991420e+01 +9.2680569972e+00 6.1120471098e+01 3.9999999892e+01 0.0000e+00 0.0000e+00
  9000006  2    3    3    0    0 +2.1821691848e+01 +3.9668991420e+01 +4.4139099595e+01 7.4820286440e+01 4.0000000431e+01 0.0000e+00 0.0000e+00
      -11  1    4    4    0    0 -3.3535344350e+01 -3.0335922551e+01 +4.7099650355e+00 4.5465055684e+01 0.0000000000e+00 0.0000e+00 1.0000e+00
       13  1    4    4    0    0 +1.1713652502e+01 -9.3330688683e+00 +4.5580919617e+00 1.5655415413e+01 0.0000000000e+00 0.0000e+00 1.0000e+00
      -11  1    5    5    0    0 +5.0911677096e+00 +4.4187011942e-02 +2.8658463833e+01 2.9107206846e+01 0.0000000000e+00 0.0000e+00 1.0000e+00
       13  1    5    5    0    0 +1.6730524139e+01 +3.9624804408e+01 +1.5480635763e+01 4.5713079594e+01 0.0000000000e+00 0.0000e+00 1.0000e+00
<mgrwt>
<rscale>  0 0.12501026E+03</rscale>
<asrwt>0</asrwt>
<pdfrwt beam="1">  1       21 0.23668489E-01 0.12501026E+03</pdfrwt>
<pdfrwt beam="2">  1       21 0.10316700E-01 0.12501026E+03</pdfrwt>
<totfact> 0.12882766E+06</totfact>
</mgrwt>
</event>
<event>
 9      1 +9.5563000e+06 1.25009100e+02 7.81860800e-03 1.23505500e-01
       21 -1    0    0  502  501 +0.0000000000e+00 +0.0000000000e+00 +2.5756954113e+01 2.5756954113e+01 0.0000000000e+00 0.0000e+00 1.0000e+00
       21 -1    0    0  501  502 -0.0000000000e+00 -0.0000000000e+00 -1.5168016340e+02 1.5168016340e+02 0.0000000000e+00 0.0000e+00 1.0000e+00
       25  2    1    2    0    0 -3.5527136788e-15 -7.1054273576e-15 -1.2592320929e+02 1.7743711752e+02 1.2500910381e+02 0.0000e+00 0.0000e+00
  9000006  2    3    3    0    0 +2.7992858883e+01 -2.5726394620e+01 -1.0461957193e+02 1.1828229939e+02 3.9999999894e+01 0.0000e+00 0.0000e+00
  9000006  2    3    3    0    0 -2.7992858883e+01 +2.5726394620e+01 -2.1303637367e+01 5.9154818125e+01 4.0000000172e+01 0.0000e+00 0.0000e+00
      -11  1    5    5    0    0 +1.8188455268e+00 -7.7900069934e+00 -1.0166908422e+01 1.2936708812e+01 0.0000000000e+00 0.0000e+00 1.0000e+00
       13  1    4    4    0    0 +3.4150130306e+01 -6.7455380133e+00 -7.3306050718e+01 8.1151159911e+01 0.0000000000e+00 0.0000e+00 1.0000e+00
      -11  1    4    4    0    0 -6.1572714239e+00 -1.8980856606e+01 -3.1313521207e+01 3.7131139482e+01 0.0000000000e+00 0.0000e+00 1.0000e+00
       13  1    5    5    0    0 -2.9811704409e+01 +3.3516401613e+01 -1.1136728944e+01 4.6218109313e+01 0.0000000000e+00 0.0000e+00 1.0000e+00
<mgrwt>
<rscale>  0 0.12500910E+03</rscale>
<asrwt>0</asrwt>
<pdfrwt beam="1">  1       21 0.64392385E-02 0.12500910E+03</pdfrwt>
<pdfrwt beam="2">  1       21 0.37920041E-01 0.12500910E+03</pdfrwt>
<totfact> 0.11710779E+06</totfact>
</mgrwt>
</event>
<event>
 9      1 +9.5563000e+06 1.25006400e+02 7.81860800e-03 1.23505900e-01
       21 -1    0    0  502  501 +0.0000000000e+00 +0.0000000000e+00 +2.1265187547e+01 2.1265187547e+01 0.0000000000e+00 0.0000e+00 -1.0000e+00
       21 -1    0    0  501  502 -0.0000000000e+00 -0.0000000000e+00 -1.8371111452e+02 1.8371111452e+02 0.0000000000e+00 0.0000e+00 -1.0000e+00
       25  2    1    2    0    0 +0.0000000000e+00 +0.0000000000e+00 -1.6244592698e+02 2.0497630207e+02 1.2500642071e+02 0.0000e+00 0.0000e+00
  9000006  2    3    3    0    0 +4.6712235644e+01 -8.3848752807e+00 -9.3307223582e+01 1.1206505716e+02 3.9999999641e+01 0.0000e+00 0.0000e+00
  9000006  2    3    3    0    0 -4.6712235644e+01 +8.3848752807e+00 -6.9138703394e+01 9.2911244911e+01 4.0000000394e+01 0.0000e+00 0.0000e+00
      -11  1    5    5    0    0 -4.9608171828e+01 +1.7239000665e+01 -5.5651294525e+01 7.6519412167e+01 0.0000000000e+00 0.0000e+00 1.0000e+00
       13  1    4    4    0    0 +1.3179143701e+01 +1.5710598127e+01 -3.6002175204e+01 4.1432708596e+01 0.0000000000e+00 0.0000e+00 1.0000e+00
      -11  1    4    4    0    0 +3.3533091942e+01 -2.4095473408e+01 -5.7305048378e+01 7.0632348563e+01 0.0000000000e+00 0.0000e+00 1.0000e+00
       13  1    5    5    0    0 +2.8959361840e+00 -8.8541253843e+00 -1.3487408869e+01 1.6391832744e+01 0.0000000000e+00 0.0000e+00 1.0000e+00
<mgrwt>
<rscale>  0 0.12500642E+03</rscale>
<asrwt>0</asrwt>
<pdfrwt beam="1">  1       21 0.53162969E-02 0.12500642E+03</pdfrwt>
<pdfrwt beam="2">  1       21 0.45927778E-01 0.12500642E+03</pdfrwt>
<totfact> 0.11021341E+06</totfact>
</mgrwt>
</event>
<event>
 9      1 +9.5563000e+06 1.25003000e+02 7.81860800e-03 1.23506500e-01
       21 -1    0    0  502  501 +0.0000000000e+00 +0.0000000000e+00 +3.2055209148e+01 3.2055209148e+01 0.0000000000e+00 0.0000e+00 -1.0000e+00
       21 -1    0    0  501  502 -0.0000000000e+00 -0.0000000000e+00 -1.2186587759e+02 1.2186587759e+02 0.0000000000e+00 0.0000e+00 -1.0000e+00
       25  2    1    2    0    0 -1.7763568394e-15 +3.5527136788e-15 -8.9810668439e+01 1.5392108673e+02 1.2500297907e+02 0.0000e+00 0.0000e+00
  9000006  2    3    3    0    0 +1.0954702135e+01 -9.0878819284e+00 +1.1573305135e+01 4.4006095969e+01 3.9999999923e+01 0.0000e+00 0.0000e+00
  9000006  2    3    3    0    0 -1.0954702135e+01 +9.0878819284e+00 -1.0138397357e+02 1.0991499077e+02 4.0000000009e+01 0.0000e+00 0.0000e+00
      -11  1    4    4    0    0 -6.8635767556e-01 +8.2404697266e+00 -1.0671369540e+01 1.3500168741e+01 0.0000000000e+00 0.0000e+00 1.0000e+00
       13  1    4    4    0    0 +1.1641059811e+01 -1.7328351655e+01 +2.2244674675e+01 3.0505927228e+01 0.0000000000e+00 0.0000e+00 1.0000e+00
      -11  1    5    5    0    0 -3.5507687113e+00 -7.4876320810e+00 -1.5334370328e+00 8.4275750815e+00 0.0000000000e+00 0.0000e+00 1.0000e+00
       13  1    5    5    0    0 -7.4039334240e+00 +1.6575514009e+01 -9.9850536541e+01 1.0148741568e+02 0.0000000000e+00 0.0000e+00 1.0000e+00
<mgrwt>
<rscale>  0 0.12500298E+03</rscale>
<asrwt>0</asrwt>
<pdfrwt beam="1">  1       21 0.80138024E-02 0.12500298E+03</pdfrwt>
<pdfrwt beam="2">  1       21 0.30466469E-01 0.12500298E+03</pdfrwt>
<totfact> 0.12355329E+06</totfact>
</mgrwt>
</event>
<event>
 9      1 +9.5563000e+06 1.25004900e+02 7.81860800e-03 1.23506200e-01
       21 -1    0    0  502  501 +0.0000000000e+00 +0.0000000000e+00 +1.3524217833e+02 1.3524217833e+02 0.0000000000e+00 0.0000e+00 1.0000e+00
       21 -1    0    0  501  502 -0.0000000000e+00 -0.0000000000e+00 -2.8885648939e+01 2.8885648939e+01 0.0000000000e+00 0.0000e+00 1.0000e+00
       25  2    1    2    0    0 +0.0000000000e+00 +0.0000000000e+00 +1.0635652939e+02 1.6412782727e+02 1.2500492926e+02 0.0000e+00 0.0000e+00
  9000006  2    3    3    0    0 +3.6815920551e+01 -2.8051947186e+01 +7.0004504063e+01 9.2967490728e+01 3.9999999952e+01 0.0000e+00 0.0000e+00
  9000006  2    3    3    0    0 -3.6815920551e+01 +2.8051947186e+01 +3.6352025328e+01 7.1160336542e+01 4.0000000055e+01 0.0000e+00 0.0000e+00
      -11  1    4    4    0    0 +4.4804983151e+01 -1.8614647562e+01 +5.9247504102e+01 7.6578445802e+01 0.0000000000e+00 0.0000e+00 1.0000e+00
       13  1    4    4    0    0 -7.9890626008e+00 -9.4372996239e+00 +1.0756999960e+01 1.6389044926e+01 0.0000000000e+00 0.0000e+00 1.0000e+00
      -11  1    5    5    0    0 -2.5604670575e+01 -4.8993598187e+00 +1.9070293932e+01 3.2299829605e+01 0.0000000000e+00 0.0000e+00 1.0000e+00
       13  1    5    5    0    0 -1.1211249976e+01 +3.2951307004e+01 +1.7281731395e+01 3.8860506936e+01 0.0000000000e+00 0.0000e+00 1.0000e+00
<mgrwt>
<rscale>  0 0.12500493E+03</rscale>
<asrwt>0</asrwt>
<pdfrwt beam="1">  1       21 0.33810543E-01 0.12500493E+03</pdfrwt>
<pdfrwt beam="2">  1       21 0.72214126E-02 0.12500493E+03</pdfrwt>
<totfact> 0.12068701E+06</totfact>
</mgrwt>
</event>
<event>
 9      1 +9.5563000e+06 1.25004000e+02 7.81860800e-03 1.23506300e-01
       21 -1    0    0  502  501 +0.0000000000e+00 +0.0000000000e+00 +1.4931002027e+02 1.4931002027e+02 0.0000000000e+00 0.0000e+00 1.0000e+00
       21 -1    0    0  501  502 -0.0000000000e+00 -0.0000000000e+00 -2.6163674875e+01 2.6163674875e+01 0.0000000000e+00 0.0000e+00 1.0000e+00
       25  2    1    2    0    0 +0.0000000000e+00 +7.1054273576e-15 +1.2314634539e+02 1.7547369515e+02 1.2500398115e+02 0.0000e+00 0.0000e+00
  9000006  2    3    3    0    0 +3.1579936467e+01 -3.5742465605e+01 +6.9474472496e+01 9.3281930530e+01 4.0000000000e+01 0.0000e+00 0.0000e+00
  9000006  2    3    3    0    0 -3.1579936467e+01 +3.5742465605e+01 +5.3671872898e+01 8.2191764615e+01 3.9999999943e+01 0.0000e+00 0.0000e+00
      -11  1    4    4    0    0 +2.7674023448e+01 -2.9246197346e+00 +2.2189011205e+01 3.5591532598e+01 0.0000000000e+00 0.0000e+00 1.0000e+00
       13  1    4    4    0    0 +3.9059130188e+00 -3.2817845870e+01 +4.7285461291e+01 5.7690397932e+01 0.0000000000e+00 0.0000e+00 1.0000e+00
      -11  1    5    5    0    0 +5.9474289343e+00 +6.8051092210e+00 +2.5517214133e+01 2.7070456951e+01 0.0000000000e+00 0.0000e+00 1.0000e+00
       13  1    5    5    0    0 -3.7527365401e+01 +2.8937356384e+01 +2.8154658765e+01 5.5121307664e+01 0.0000000000e+00 0.0000e+00 1.0000e+00
<mgrwt>
<rscale>  0 0.12500398E+03</rscale>
<asrwt>0</asrwt>
<pdfrwt beam="1">  1       21 0.37327503E-01 0.12500398E+03</pdfrwt>
<pdfrwt beam="2">  1       21 0.65409191E-02 0.12500398E+03</pdfrwt>
<totfact> 0.11763876E+06</totfact>
</mgrwt>
</event>
<event>
 9      1 +9.5563000e+06 1.25018500e+02 7.81860800e-03 1.23504000e-01
       21 -1    0    0  502  501 +0.0000000000e+00 +0.0000000000e+00 +1.9650922417e+02 1.9650922417e+02 0.0000000000e+00 0.0000e+00 1.0000e+00
       21 -1    0    0  501  502 -0.0000000000e+00 -0.0000000000e+00 -1.9884099727e+01 1.9884099727e+01 0.0000000000e+00 0.0000e+00 1.0000e+00
       25  2    1    2    0    0 +7.1054273576e-15 -1.7763568394e-15 +1.7662512445e+02 2.1639332390e+02 1.2501854280e+02 0.0000e+00 0.0000e+00
  9000006  2    3    3    0    0 +3.9332896386e+01 -1.5508258187e+01 +1.2777632647e+02 1.4040787878e+02 4.0000000073e+01 0.0000e+00 0.0000e+00
  9000006  2    3    3    0    0 -3.9332896386e+01 +1.5508258187e+01 +4.8848797973e+01 7.5985445123e+01 3.9999999962e+01 0.0000e+00 0.0000e+00
      -11  1    4    4    0    0 +3.9061365069e+01 -1.9287392937e+01 +1.2921046995e+02 1.3635666215e+02 0.0000000000e+00 0.0000e+00 1.0000e+00
       13  1    4    4    0    0 +2.7153131791e-01 +3.7791347504e+00 -1.4341434726e+00 4.0512166343e+00 0.0000000000e+00 0.0000e+00 1.0000e+00
      -11  1    5    5    0    0 -2.7821216005e+01 -4.0562345469e+00 +4.4853094417e+01 5.2936501371e+01 0.0000000000e+00 0.0000e+00 1.0000e+00
       13  1    5    5    0    0 -1.1511680382e+01 +1.9564492734e+01 +3.9957035561e+00 2.3048943751e+01 0.0000000000e+00 0.0000e+00 1.0000e+00
<mgrwt>
<rscale>  0 0.12501854E+03</rscale>
<asrwt>0</asrwt>
<pdfrwt beam="1">  1       21 0.49127300E-01 0.12501854E+03</pdfrwt>
<pdfrwt beam="2">  1       21 0.49710255E-02 0.12501854E+03</pdfrwt>
<totfact> 0.10750025E+06</totfact>
</mgrwt>
</event>
<event>
 9      1 +9.5563000e+06 1.24980600e+02 7.81860800e-03 1.23510000e-01
       21 -1    0    0  502  501 +0.0000000000e+00 +0.0000000000e+00 +7.1732187587e+00 7.1732187587e+00 0.0000000000e+00 0.0000e+00 -1.0000e+00
       21 -1    0    0  501  502 -0.0000000000e+00 -0.0000000000e+00 -5.4439161496e+02 5.4439161496e+02 0.0000000000e+00 0.0000e+00 -1.0000e+00
       25  2    1    2    0    0 +0.0000000000e+00 -1.3322676296e-15 -5.3721839620e+02 5.5156483372e+02 1.2498064081e+02 0.0000e+00 0.0000e+00
  9000006  2    3    3    0    0 -4.7873106430e+01 +2.0497718116e+00 -2.5536644594e+02 2.6288411435e+02 3.9999999764e+01 0.0000e+00 0.0000e+00
  9000006  2    3    3    0    0 +4.7873106430e+01 -2.0497718116e+00 -2.8185195026e+02 2.8868071937e+02 3.9999999826e+01 0.0000e+00 0.0000e+00
      -11  1    4    4    0    0 +6.0705928878e+00 -2.2802729920e+00 -5.3423991285e+01 5.3816118289e+01 0.0000000000e+00 0.0000e+00 1.0000e+00
       13  1    4    4    0    0 -5.3943699318e+01 +4.3300448036e+00 -2.0194245465e+02 2.0906799606e+02 0.0000000000e+00 0.0000e+00 1.0000e+00
      -11  1    5    5    0    0 -3.1656253757e-01 +1.2168788858e+01 -5.4104113489e+01 5.5456602227e+01 0.0000000000e+00 0.0000e+00 1.0000e+00
       13  1    5    5    0    0 +4.8189668968e+01 -1.4218560670e+01 -2.2774783677e+02 2.3322411714e+02 0.0000000000e+00 0.0000e+00 1.0000e+00
<mgrwt>
<rscale>  0 0.12498064E+03</rscale>
<asrwt>0</asrwt>
<pdfrwt beam="1">  1       21 0.17933044E-02 0.12498064E+03</pdfrwt>
<pdfrwt beam="2">  1       21 0.13609792E+00 0.12498064E+03</pdfrwt>
<totfact> 0.57407508E+05</totfact>
</mgrwt>
</event>
<event>
 9      1 +9.5563000e+06 1.24998900e+02 7.81860800e-03 1.23507100e-01
       21 -1    0    0  502  501 +0.0000000000e+00 +0.0000000000e+00 +2.8398545038e+01 2.8398545038e+01 0.0000000000e+00 0.0000e+00 1.0000e+00
       21 -1    0    0  501  502 -0.0000000000e+00 -0.0000000000e+00 -1.3754862506e+02 1.3754862506e+02 0.0000000000e+00 0.0000e+00 1.0000e+00
       25  2    1    2    0    0 +7.1054273576e-15 -3.5527136788e-15 -1.0915008002e+02 1.6594717010e+02 1.2499889317e+02 0.0000e+00 0.0000e+00
  9000006  2    3    3    0    0 -3.1886843489e+01 +2.1866921692e+01 -1.6762100421e+01 5.8102504772e+01 3.9999999978e+01 0.0000e+00 0.0000e+00
  9000006  2    3    3    0    0 +3.1886843489e+01 -2.1866921692e+01 -9.2387979601e+01 1.0784466533e+02 4.0000000160e+01 0.0000e+00 0.0000e+00
      -11  1    5    5    0    0 -3.8561103999e-01 +9.6047806215e+00 -9.6310791626e+00 1.3607284538e+01 0.0000000000e+00 0.0000e+00 1.0000e+00
       13  1    4    4    0    0 -3.6100435929e+01 +2.2412055152e+01 -2.4663857084e+01 4.9130922408e+01 0.0000000000e+00 0.0000e+00 1.0000e+00
      -11  1    4    4    0    0 +4.2135924399e+00 -5.4513346055e-01 +7.9017566632e+00 8.9715823634e+00 0.0000000000e+00 0.0000e+00 1.0000e+00
       13  1    5    5    0    0 +3.2272454529e+01 -3.1471702313e+01 -8.2756900438e+01 9.4237380789e+01 0.0000000000e+00 0.0000e+00 1.0000e+00
<mgrwt>
<rscale>  0 0.12499889E+03</rscale>
<asrwt>0</asrwt>
<pdfrwt beam="1">  1       21 0.70996364E-02 0.12499889E+03</pdfrwt>
<pdfrwt beam="2">  1       21 0.34387156E-01 0.12499889E+03</pdfrwt>
<totfact> 0.12020802E+06</totfact>
</mgrwt>
</event>
<event>
 9      1 +9.5563000e+06 1.25000600e+02 7.81860800e-03 1.23506800e-01
       21 -1    0    0  502  501 +0.0000000000e+00 +0.0000000000e+00 +4.3349737111e+01 4.3349737111e+01 0.0000000000e+00 0.0000e+00 -1.0000e+00
       21 -1    0    0  501  502 -0.0000000000e+00 -0.0000000000e+00 -9.0111000018e+01 9.0111000018e+01 0.0000000000e+00 0.0000e+00 -1.0000e+00
       25  2    1    2    0    0 +0.0000000000e+00 +0.0000000000e+00 -4.6761262907e+01 1.3346073713e+02 1.2500061058e+02 0.0000e+00 0.0000e+00
  9000006  2    3    3    0    0 -1.7710666922e+01 +4.3916437320e+01 -1.4841392283e+01 6.3738435159e+01 4.0000000025e+01 0.0000e+00 0.0000e+00
  9000006  2    3    3    0    0 +1.7710666922e+01 -4.3916437320e+01 -3.1919870624e+01 6.9722301970e+01 4.0000000771e+01 0.0000e+00 0.0000e+00
      -11  1    4    4    0    0 +1.0606833721e+01 +1.7270814678e+01 -1.4383460403e+01 2.4852965505e+01 0.0000000000e+00 0.0000e+00 1.0000e+00
       13  1    4    4    0    0 -2.8317500643e+01 +2.6645622642e+01 -4.5793188017e-01 3.8885469654e+01 0.0000000000e+00 0.0000e+00 1.0000e+00
      -11  1    5    5    0    0 -1.1448517242e+00 -4.3074667800e+01 -2.1332214546e+01 4.8081192466e+01 0.0000000000e+00 0.0000e+00 1.0000e+00
       13  1    5    5    0    0 +1.8855518646e+01 -8.4176951975e-01 -1.0587656078e+01 2.1641109504e+01 0.0000000000e+00 0.0000e+00 1.0000e+00
<mgrwt>
<rscale>  0 0.12500061E+03</rscale>
<asrwt>0</asrwt>
<pdfrwt beam="1">  1       21 0.10837434E-01 0.12500061E+03</pdfrwt>
<pdfrwt beam="2">  1       21 0.22527750E-01 0.12500061E+03</pdfrwt>
<totfact> 0.12961911E+06</totfact>
</mgrwt>
</event>
<event>
 9      1 +9.5563000e+06 1.24996500e+02 7.81860800e-03 1.23507500e-01
       21 -1    0    0  502  501 +0.0000000000e+00 +0.0000000000e+00 +1.2430203778e+01 1.2430203778e+01 0.0000000000e+00 0.0000e+00 1.0000e+00
       21 -1    0    0  501  502 -0.0000000000e+00 -0.0000000000e+00 -3.1423721002e+02 3.1423721002e+02 0.0000000000e+00 0.0000e+00 1.0000e+00
       25  2    1    2    0    0 +3.5527136788e-15 +0.0000000000e+00 -3.0180700624e+02 3.2666741380e+02 1.2499652084e+02 0.0000e+00 0.0000e+00
  9000006  2    3    3    0    0 -3.0976335419e+01 -3.5813783706e+01 -1.3001710823e+02 1.4403683170e+02 3.9999999926e+01 0.0000e+00 0.0000e+00
  9000006  2    3    3    0    0 +3.0976335419e+01 +3.5813783706e+01 -1.7178989801e+02 1.8263058210e+02 3.9999999996e+01 0.0000e+00 0.0000e+00
      -11  1    5    5    0    0 +3.3371217921e+00 +6.7596796207e+00 -1.0092678520e+02 1.0120793260e+02 0.0000000000e+00 0.0000e+00 1.0000e+00
       13  1    4    4    0    0 -2.7099444862e+01 -2.3465356279e+01 -1.2519349476e+02 1.3022447538e+02 0.0000000000e+00 0.0000e+00 1.0000e+00
      -11  1    4    4    0    0 -3.8768905571e+00 -1.2348427427e+01 -4.8236134744e+00 1.3812356326e+01 0.0000000000e+00 0.0000e+00 1.0000e+00
       13  1    5    5    0    0 +2.7639213627e+01 +2.9054104086e+01 -7.0863112814e+01 8.1422649502e+01 0.0000000000e+00 0.0000e+00 1.0000e+00
<mgrwt>
<rscale>  0 0.12499652E+03</rscale>
<asrwt>0</asrwt>
<pdfrwt beam="1">  1       21 0.31075512E-02 0.12499652E+03</pdfrwt>
<pdfrwt beam="2">  1       21 0.78559295E-01 0.12499652E+03</pdfrwt>
<totfact> 0.85984134E+05</totfact>
</mgrwt>
</event>
<event>
 9      1 +9.5563000e+06 1.24997700e+02 7.81860800e-03 1.23507300e-01
       21 -1    0    0  502  501 +0.0000000000e+00 +0.0000000000e+00 +9.6792688757e+00 9.6792688757e+00 0.0000000000e+00 0.0000e+00 1.0000e+00
       21 -1    0    0  501  502 -0.0000000000e+00 -0.0000000000e+00 -4.0355363859e+02 4.0355363859e+02 0.0000000000e+00 0.0000e+00 1.0000e+00
       25  2    1    2    0    0 +0.0000000000e+00 +0.0000000000e+00 -3.9387436971e+02 4.1323290747e+02 1.2499766676e+02 0.0000e+00 0.0000e+00
  9000006  2    3    3    0    0 -1.9366058517e+01 -3.4136977725e+01 -2.8841797124e+02 2.9381168050e+02 3.9999999947e+01 0.0000e+00 0.0000e+00
  9000006  2    3    3    0    0 +1.9366058517e+01 +3.4136977725e+01 -1.0545639847e+02 1.1942122696e+02 3.9999999989e+01 0.0000e+00 0.0000e+00
      -11  1    4    4    0    0 -2.9638296395e+01 -1.8869977305e+01 -1.4392053775e+02 1.4814731129e+02 0.0000000000e+00 0.0000e+00 1.0000e+00
       13  1    4    4    0    0 +1.0272237878e+01 -1.5267000420e+01 -1.4449743349e+02 1.4566436922e+02 0.0000000000e+00 0.0000e+00 1.0000e+00
      -11  1    5    5    0    0 -6.5872954678e+00 -1.3979058781e+00 -2.0460972592e+00 7.0379767276e+00 0.0000000000e+00 0.0000e+00 1.0000e+00
       13  1    5    5    0    0 +2.5953353985e+01 +3.5534883603e+01 -1.0341030121e+02 1.1238325023e+02 0.0000000000e+00 0.0000e+00 1.0000e+00
<mgrwt>
<rscale>  0 0.12499767E+03</rscale>
<asrwt>0</asrwt>
<pdfrwt beam="1">  1       21 0.24198175E-02 0.12499767E+03</pdfrwt>
<pdfrwt beam="2">  1       21 0.10088840E+00 0.12499767E+03</pdfrwt>
<totfact> 0.73114843E+05</totfact>
</mgrwt>
</event>
<event>
 9      1 +9.5563000e+06 1.24997600e+02 7.81860800e-03 1.23507300e-01
       21 -1    0    0  502  501 +0.0000000000e+00 +0.0000000000e+00 +4.6336322199e+01 4.6336322199e+01 0.0000000000e+00 0.0000e+00 -1.0000e+00
       21 -1    0    0  501  502 -0.0000000000e+00 -0.0000000000e+00 -8.4298834034e+01 8.4298834034e+01 0.0000000000e+00 0.0000e+00 -1.0000e+00
       25  2    1    2    0    0 +0.0000000000e+00 +1.7763568394e-15 -3.7962511835e+01 1.3063515623e+02 1.2499756693e+02 0.0000e+00 0.0000e+00
  9000006  2    3    3    0    0 +2.3587775074e+01 +1.5354279658e+01 -5.9645793593e+01 7.7134672643e+01 3.9999999920e+01 0.0000e+00 0.0000e+00
  9000006  2    3    3    0    0 -2.3587775074e+01 -1.5354279658e+01 +2.1683281758e+01 5.3500483590e+01 3.9999999998e+01 0.0000e+00 0.0000e+00
      -11  1    4    4    0    0 +2.2580876126e+01 +1.6924727410e+01 -6.5323529837e+01 7.1158315852e+01 0.0000000000e+00 0.0000e+00 1.0000e+00
       13  1    4    4    0    0 +1.0068989476e+00 -1.5704477515e+00 +5.6777362443e+00 5.9763567907e+00 0.0000000000e+00 0.0000e+00 1.0000e+00
      -11  1    5    5    0    0 -2.4171279352e+01 +7.9891649598e+00 +9.5878203527e+00 2.7203010889e+01 0.0000000000e+00 0.0000e+00 1.0000e+00
       13  1    5    5    0    0 +5.8350427859e-01 -2.3343444618e+01 +1.2095461405e+01 2.6297472701e+01 0.0000000000e+00 0.0000e+00 1.0000e+00
<mgrwt>
<rscale>  0 0.12499757E+03</rscale>
<asrwt>0</asrwt>
<pdfrwt beam="1">  1       21 0.11584081E-01 0.12499757E+03</pdfrwt>
<pdfrwt beam="2">  1       21 0.21074708E-01 0.12499757E+03</pdfrwt>
<totfact> 0.13050591E+06</totfact>
</mgrwt>
</event>
<event>
 9      1 +9.5563000e+06 1.24984700e+02 7.81860800e-03 1.23509300e-01
       21 -1    0    0  502  501 +0.0000000000e+00 +0.0000000000e+00 +7.8359755813e+00 7.8359755813e+00 0.0000000000e+00 0.0000e+00 -1.0000e+00
       21 -1    0    0  501  502 -0.0000000000e+00 -0.0000000000e+00 -4.9837983816e+02 4.9837983816e+02 0.0000000000e+00 0.0000e+00 -1.0000e+00
       25  2    1    2    0    0 +7.1054273576e-15 +0.0000000000e+00 -4.9054386258e+02 5.0621581374e+02 1.2498467493e+02 0.0000e+00 0.0000e+00
  9000006  2    3    3    0    0 -4.4238108494e+01 +1.5868787458e+01 -2.0549231138e+02 2.1455982546e+02 4.0000000080e+01 0.0000e+00 0.0000e+00
  9000006  2    3    3    0    0 +4.4238108494e+01 -1.5868787458e+01 -2.8505155119e+02 2.9165598827e+02 4.0000000016e+01 0.0000e+00 0.0000e+00
      -11  1    4    4    0    0 +3.8610766476e+00 +6.6823579878e+00 -8.1155340520e+00 1.1199272928e+01 0.0000000000e+00 0.0000e+00 1.0000e+00
       13  1    4    4    0    0 -4.8099185141e+01 +9.1864294706e+00 -1.9737677733e+02 2.0336055254e+02 0.0000000000e+00 0.0000e+00 1.0000e+00
      -11  1    5    5    0    0 +2.2674595733e+01 -1.8045709636e+00 -2.2718622821e+02 2.2832208841e+02 0.0000000000e+00 0.0000e+00 1.0000e+00
       13  1    5    5    0    0 +2.1563512761e+01 -1.4064216495e+01 -5.7865322981e+01 6.3333899863e+01 0.0000000000e+00 0.0000e+00 1.0000e+00
<mgrwt>
<rscale>  0 0.12498467E+03</rscale>
<asrwt>0</asrwt>
<pdfrwt beam="1">  1       21 0.19589940E-02 0.12498467E+03</pdfrwt>
<pdfrwt beam="2">  1       21 0.12459496E+00 0.12498467E+03</pdfrwt>
<totfact> 0.62019298E+05</totfact>
</mgrwt>
</event>
<event>
 9      1 +9.5563000e+06 1.24953900e+02 7.81860800e-03 1.23514100e-01
       21 -1    0    0  502  501 +0.0000000000e+00 +0.0000000000e+00 +6.6652981516e+01 6.6652981516e+01 0.0000000000e+00 0.0000e+00 1.0000e+00
       21 -1    0    0  501  502 -0.0000000000e+00 -0.0000000000e+00 -5.8562597193e+01 5.8562597193e+01 0.0000000000e+00 0.0000e+00 1.0000e+00
       25  2    1    2    0    0 +0.0000000000e+00 +0.0000000000e+00 +8.0903843229e+00 1.2521557871e+02 1.2495393885e+02 0.0000e+00 0.0000e+00
  9000006  2    3    3    0    0 +3.5800414086e+01 +1.0537335846e+01 +3.4285633321e+01 6.4561673953e+01 3.9999999949e+01 0.0000e+00 0.0000e+00
  9000006  2    3    3    0    0 -3.5800414086e+01 -1.0537335846e+01 -2.6195248999e+01 6.0653904756e+01 3.9999999958e+01 0.0000e+00 0.0000e+00
      -11  1    4    4    0    0 -6.5214363471e+00 +8.3927301113e+00 +1.4007911118e+01 1.7583760253e+01 0.0000000000e+00 0.0000e+00 1.0000e+00
       13  1    4    4    0    0 +4.2321850433e+01 +2.1446057345e+00 +2.0277722203e+01 4.6977913699e+01 0.0000000000e+00 0.0000e+00 1.0000e+00
      -11  1    5    5    0    0 -1.5932496407e+01 +1.5316299731e+00 -3.2791870817e+01 3.6489685170e+01 0.0000000000e+00 0.0000e+00 1.0000e+00
       13  1    5    5    0    0 -1.9867917678e+01 -1.2068965819e+01 +6.5966218181e+00 2.4164219586e+01 0.0000000000e+00 0.0000e+00 1.0000e+00
<mgrwt>
<rscale>  0 0.12495394E+03</rscale>
<asrwt>0</asrwt>
<pdfrwt beam="1">  1       21 0.16663245E-01 0.12495394E+03</pdfrwt>
<pdfrwt beam="2">  1       21 0.14640649E-01 0.12495394E+03</pdfrwt>
<totfact> 0.13236086E+06</totfact>
</mgrwt>
</event>
<event>
 8      1 +9.5563000e+06 1.24984500e+02 7.81860800e-03 1.23509300e-01
       21 -1    0    0  502  501 +0.0000000000e+00 +0.0000000000e+00 +6.0970049560e+00 6.0970049560e+00 0.0000000000e+00 0.0000e+00 1.0000e+00
       21 -1    0    0  501  502 -0.0000000000e+00 -0.0000000000e+00 -6.4052481510e+02 6.4052481510e+02 0.0000000000e+00 0.0000e+00 1.0000e+00
       25  2    1    2    0    0 +0.0000000000e+00 -1.4210854715e-14 -6.3442781015e+02 6.4662182006e+02 1.2498452660e+02 0.0000e+00 0.0000e+00
  9000006  2    3    3    0    0 -3.1865652896e+01 +3.5028104862e+01 -3.5824391797e+02 3.6356717773e+02 3.9999999978e+01 0.0000e+00 0.0000e+00
      -11  1    3    3    0    0 -3.9748348936e+00 -9.4187732850e+00 -1.2940942430e+02 1.2981260224e+02 0.0000000000e+00 0.0000e+00 1.0000e+00
       13  1    4    4    0    0 -3.6530104976e+01 +2.6963343329e+01 -3.4061581638e+02 3.4362858557e+02 0.0000000000e+00 0.0000e+00 1.0000e+00
      -11  1    4    4    0    0 +4.6644520793e+00 +8.0647615335e+00 -1.7628101589e+01 1.9938592162e+01 0.0000000000e+00 0.0000e+00 1.0000e+00
       13  1    3    3    0    0 +3.5840487790e+01 -2.5609331577e+01 -1.4677446788e+02 1.5324204009e+02 0.0000000000e+00 0.0000e+00 1.0000e+00
<mgrwt>
<rscale>  0 0.12498453E+03</rscale>
<asrwt>0</asrwt>
<pdfrwt beam="1">  1       21 0.15242512E-02 0.12498453E+03</pdfrwt>
<pdfrwt beam="2">  1       21 0.16013120E+00 0.12498453E+03</pdfrwt>
<totfact> 0.48968975E+05</totfact>
</mgrwt>
</event>
<event>
 9      1 +9.5563000e+06 1.24993000e+02 7.81860800e-03 1.23508000e-01
       21 -1    0    0  502  501 +0.0000000000e+00 +0.0000000000e+00 +7.5572478482e+01 7.5572478482e+01 0.0000000000e+00 0.0000e+00 1.0000e+00
       21 -1    0    0  501  502 -0.0000000000e+00 -0.0000000000e+00 -5.1683037621e+01 5.1683037621e+01 0.0000000000e+00 0.0000e+00 1.0000e+00
       25  2    1    2    0    0 +0.0000000000e+00 +0.0000000000e+00 +2.3889440862e+01 1.2725551610e+02 1.2499304378e+02 0.0000e+00 0.0000e+00
  9000006  2    3    3    0    0 -9.2510620986e+00 +4.2808375067e+01 +3.1990608260e+01 6.7390935214e+01 4.0000000080e+01 0.0000e+00 0.0000e+00
  9000006  2    3    3    0    0 +9.2510620986e+00 -4.2808375067e+01 -8.1011673979e+00 5.9864580888e+01 4.0000000073e+01 0.0000e+00 0.0000e+00
      -11  1    4    4    0    0 -2.2645361906e+01 +1.4248209351e+01 +2.0909120499e+01 3.3956077595e+01 0.0000000000e+00 0.0000e+00 1.0000e+00
       13  1    4    4    0    0 +1.3394299808e+01 +2.8560165716e+01 +1.1081487761e+01 3.3434857620e+01 0.0000000000e+00 0.0000e+00 1.0000e+00
      -11  1    5    5    0    0 -1.5002607307e+00 -2.4660760760e+01 -2.3225715410e+01 3.3909257731e+01 0.0000000000e+00 0.0000e+00 1.0000e+00
       13  1    5    5    0    0 +1.0751322829e+01 -1.8147614307e+01 +1.5124548012e+01 2.5955323157e+01 0.0000000000e+00 0.0000e+00 1.0000e+00
<mgrwt>
<rscale>  0 0.12499304E+03</rscale>
<asrwt>0</asrwt>
<pdfrwt beam="1">  1       21 0.18893119E-01 0.12499304E+03</pdfrwt>
<pdfrwt beam="2">  1       21 0.12920759E-01 0.12499304E+03</pdfrwt>
<totfact> 0.13159028E+06</totfact>
</mgrwt>
</event>
<event>
 9      1 +9.5563000e+06 1.25001800e+02 7.81860800e-03 1.23506600e-01
       21 -1    0    0  502  501 +0.0000000000e+00 +0.0000000000e+00 +2.9516323347e+01 2.9516323347e+01 0.0000000000e+00 0.0000e+00 1.0000e+00
       21 -1    0    0  501  502 -0.0000000000e+00 -0.0000000000e+00 -1.3234590237e+02 1.3234590237e+02 0.0000000000e+00 0.0000e+00 1.0000e+00
       25  2    1    2    0    0 -1.7763568394e-15 +0.0000000000e+00 -1.0282957903e+02 1.6186222572e+02 1.2500183116e+02 0.0000e+00 0.0000e+00
  9000006  2    3    3    0    0 +1.6829717053e+00 +4.2962508249e+01 -7.9118992094e+01 9.8531337234e+01 3.9999999980e+01 0.0000e+00 0.0000e+00
  9000006  2    3    3    0    0 -1.6829717053e+00 -4.2962508249e+01 -2.3710586932e+01 6.3330888487e+01 3.9999999938e+01 0.0000e+00 0.0000e+00
      -11  1    4    4    0    0 +1.8899190962e+01 +3.3987564689e+01 -4.7028425476e+01 6.1024640722e+01 0.0000000000e+00 0.0000e+00 1.0000e+00
       13  1    4    4    0    0 -1.7216219256e+01 +8.9749435597e+00 -3.2090566619e+01 3.7506696513e+01 0.0000000000e+00 0.0000e+00 1.0000e+00
      -11  1    5    5    0    0 +8.8011893363e+00 -3.8662162226e+01 -3.0521202977e+00 3.9768570003e+01 0.0000000000e+00 0.0000e+00 1.0000e+00
       13  1    5    5    0    0 -1.0484161042e+01 -4.3003460226e+00 -2.0658466634e+01 2.3562318484e+01 0.0000000000e+00 0.0000e+00 1.0000e+00
<mgrwt>
<rscale>  0 0.12500183E+03</rscale>
<asrwt>0</asrwt>
<pdfrwt beam="1">  1       21 0.73790809E-02 0.12500183E+03</pdfrwt>
<pdfrwt beam="2">  1       21 0.33086475E-01 0.12500183E+03</pdfrwt>
<totfact> 0.12132192E+06</totfact>
</mgrwt>
</event>
<event>
 9      1 +9.5563000e+06 1.25000700e+02 7.81860800e-03 1.23506800e-01
       21 -1    0    0  502  501 +0.0000000000e+00 +0.0000000000e+00 +9.4722042480e+01 9.4722042480e+01 0.0000000000e+00 0.0000e+00 1.0000e+00
       21 -1    0    0  501  502 -0.0000000000e+00 -0.0000000000e+00 -4.1239538072e+01 4.1239538072e+01 0.0000000000e+00 0.0000e+00 1.0000e+00
       25  2    1    2    0    0 -7.1054273576e-15 +0.0000000000e+00 +5.3482504407e+01 1.3596158055e+02 1.2500069243e+02 0.0000e+00 0.0000e+00
  9000006  2    3    3    0    0 -3.4854684237e+01 +9.6997831963e+00 -7.6089601554e+00 5.4468624772e+01 4.0000000033e+01 0.0000e+00 0.0000e+00
  9000006  2    3    3    0    0 +3.4854684237e+01 -9.6997831963e+00 +6.1091464563e+01 8.1492955780e+01 3.9999999899e+01 0.0000e+00 0.0000e+00
      -11  1    4    4    0    0 -2.4796361416e+01 -6.5603581995e+00 -1.9262746147e+01 3.2077269652e+01 0.0000000000e+00 0.0000e+00 1.0000e+00
       13  1    4    4    0    0 -1.0058322821e+01 +1.6260141396e+01 +1.1653785992e+01 2.2391355120e+01 0.0000000000e+00 0.0000e+00 1.0000e+00
      -11  1    5    5    0    0 +3.0811156184e+01 -1.9487728296e+01 +2.5841419974e+01 4.4686439619e+01 0.0000000000e+00 0.0000e+00 1.0000e+00
       13  1    5    5    0    0 +4.0435280537e+00 +9.7879451000e+00 +3.5250044589e+01 3.6806516161e+01 0.0000000000e+00 0.0000e+00 1.0000e+00
<mgrwt>
<rscale>  0 0.12500069E+03</rscale>
<asrwt>0</asrwt>
<pdfrwt beam="1">  1       21 0.23680510E-01 0.12500069E+03</pdfrwt>
<pdfrwt beam="2">  1       21 0.10309885E-01 0.12500069E+03</pdfrwt>
<totfact> 0.12885379E+06</totfact>
</mgrwt>
</event>
<event>
 9      1 +9.5563000e+06 1.25008800e+02 7.81860800e-03 1.23505600e-01
       21 -1    0    0  502  501 +0.0000000000e+00 +0.0000000000e+00 +1.1141298830e+02 1.1141298830e+02 0.0000000000e+00 0.0000e+00 1.0000e+00
       21 -1    0    0  501  502 -0.0000000000e+00 -0.0000000000e+00 -3.5065909773e+01 3.5065909773e+01 0.0000000000e+00 0.0000e+00 1.0000e+00
       25  2    1    2    0    0 +0.0000000000e+00 +7.1054273576e-15 +7.6347078524e+01 1.4647889807e+02 1.2500876442e+02 0.0000e+00 0.0000e+00
  9000006  2    3    3    0    0 +4.0269009407e+01 -2.0611744535e+01 +5.7080524525e+01 8.3094063670e+01 4.0000000072e+01 0.0000e+00 0.0000e+00
  9000006  2    3    3    0    0 -4.0269009407e+01 +2.0611744535e+01 +1.9266553999e+01 6.3384834400e+01 3.9999999969e+01 0.0000e+00 0.0000e+00
      -11  1    5    5    0    0 -3.6118077752e+01 +2.6737656541e+01 +2.7205915594e+01 5.2531701486e+01 0.0000000000e+00 0.0000e+00 1.0000e+00
       13  1    4    4    0    0 +3.3859329416e+01 +6.6587448363e-02 +1.7825111336e+01 3.8264777753e+01 0.0000000000e+00 0.0000e+00 1.0000e+00
      -11  1    4    4    0    0 +6.4096799918e+00 -2.0678331983e+01 +3.9255413189e+01 4.4829285917e+01 0.0000000000e+00 0.0000e+00 1.0000e+00
       13  1    5    5    0    0 -4.1509316558e+00 -6.1259120060e+00 -7.9393615945e+00 1.0853132914e+01 0.0000000000e+00 0.0000e+00 1.0000e+00
<mgrwt>
<rscale>  0 0.12500876E+03</rscale>
<asrwt>0</asrwt>
<pdfrwt beam="1">  1       21 0.27853246E-01 0.12500876E+03</pdfrwt>
<pdfrwt beam="2">  1       21 0.87664777E-02 0.12500876E+03</pdfrwt>
<totfact> 0.12569404E+06</totfact>
</mgrwt>
</event>
<event>
 9      1 +9.5563000e+06 1.24999700e+02 7.81860800e-03 1.23507000e-01
       21 -1    0    0  502  501 +0.0000000000e+00 +0.0000000000e+00 +6.4051899546e+01 6.4051899546e+01 0.0000000000e+00 0.0000e+00 -1.0000e+00
       21 -1    0    0  501  502 -0.0000000000e+00 -0.0000000000e+00 -6.0985413025e+01 6.0985413025e+01 0.0000000000e+00 0.0000e+00 -1.0000e+00
       25  2    1    2    0    0 +0.0000000000e+00 -3.5527136788e-15 +3.0664865211e+00 1.2503731257e+02 1.2499970478e+02 0.0000e+00 0.0000e+00
  9000006  2    3    3    0    0 -7.2551944139e+00 -3.0186810975e+01 -3.5115876744e+01 6.1619852274e+01 3.9999999899e+01 0.0000e+00 0.0000e+00
  9000006  2    3    3    0    0 +7.2551944139e+00 +3.0186810975e+01 +3.8182363265e+01 6.3417460296e+01 4.0000000038e+01 0.0000e+00 0.0000e+00
      -11  1    5    5    0    0 -3.9024659474e+00 +4.7347550869e+00 -7.6569411840e+00 9.8120280523e+00 0.0000000000e+00 0.0000e+00 1.0000e+00
       13  1    4    4    0    0 -1.8061798325e+01 -1.4524042609e+01 -3.5720870246e+01 4.2581180626e+01 0.0000000000e+00 0.0000e+00 1.0000e+00
      -11  1    4    4    0    0 +1.0806603911e+01 -1.5662768366e+01 +6.0499350156e-01 1.9038671648e+01 0.0000000000e+00 0.0000e+00 1.0000e+00
       13  1    5    5    0    0 +1.1157660361e+01 +2.5452055888e+01 +4.5839304449e+01 5.3605432244e+01 0.0000000000e+00 0.0000e+00 1.0000e+00
<mgrwt>
<rscale>  0 0.12499970E+03</rscale>
<asrwt>0</asrwt>
<pdfrwt beam="1">  1       21 0.16012975E-01 0.12499970E+03</pdfrwt>
<pdfrwt beam="2">  1       21 0.15246353E-01 0.12499970E+03</pdfrwt>
<totfact> 0.13225629E+06</totfact>
</mgrwt>
</event>
<event>
 9      1 +9.5563000e+06 1.24968500e+02 7.81860800e-03 1.23511800e-01
       21 -1    0    0  502  501 +0.0000000000e+00 +0.0000000000e+00 +3.0440687307e+01 3.0440687307e+01 0.0000000000e+00 0.0000e+00 -1.0000e+00
       21 -1    0    0  501  502 -0.0000000000e+00 -0.0000000000e+00 -1.2825870371e+02 1.2825870371e+02 0.0000000000e+00 0.0000e+00 -1.0000e+00
       25  2    1    2    0    0 +0.0000000000e+00 +0.0000000000e+00 -9.7818016405e+01 1.5869939102e+02 1.2496852554e+02 0.0000e+00 0.0000e+00
  9000006  2    3    3    0    0 +4.4203479475e+00 -3.2474609134e+01 -4.3687756456e+00 5.1896299657e+01 4.0000000038e+01 0.0000e+00 0.0000e+00
  9000006  2    3    3    0    0 -4.4203479475e+00 +3.2474609134e+01 -9.3449240760e+01 1.0680309136e+02 4.0000000143e+01 0.0000e+00 0.0000e+00
      -11  1    5    5    0    0 -2.0799930492e+01 +2.6912640982e+01 -6.7986651538e+01 7.6020471851e+01 0.0000000000e+00 0.0000e+00 1.0000e+00
       13  1    4    4    0    0 -1.4008811087e+01 -1.2165530621e+01 +9.8485870367e+00 2.1005751355e+01 0.0000000000e+00 0.0000e+00 1.0000e+00
      -11  1    4    4    0    0 +1.8429159035e+01 -2.0309078512e+01 -1.4217362682e+01 3.0890548302e+01 0.0000000000e+00 0.0000e+00 1.0000e+00
       13  1    5    5    0    0 +1.6379582544e+01 +5.5619681520e+00 -2.5462589221e+01 3.0782619510e+01 0.0000000000e+00 0.0000e+00 1.0000e+00
<mgrwt>
<rscale>  0 0.12496853E+03</rscale>
<asrwt>0</asrwt>
<pdfrwt beam="1">  1       21 0.76101718E-02 0.12496853E+03</pdfrwt>
<pdfrwt beam="2">  1       21 0.32064676E-01 0.12496853E+03</pdfrwt>
<totfact> 0.12231066E+06</totfact>
</mgrwt>
</event>
<event>
 9      1 +9.5563000e+06 1.24985000e+02 7.81860800e-03 1.23509300e-01
       21 -1    0    0  502  501 +0.0000000000e+00 +0.0000000000e+00 +2.4283051858e+01 2.4283051858e+01 0.0000000000e+00 0.0000e+00 -1.0000e+00
       21 -1    0    0  501  502 -0.0000000000e+00 -0.0000000000e+00 -1.6082461078e+02 1.6082461078e+02 0.0000000000e+00 0.0000e+00 -1.0000e+00
       25  2    1    2    0    0 +0.0000000000e+00 +3.5527136788e-15 -1.3654155893e+02 1.8510766264e+02 1.2498499692e+02 0.0000e+00 0.0000e+00
  9000006  2    3    3    0    0 +2.4366518948e+01 +1.5512384921e+01 -1.1468518687e+01 5.0654597516e+01 3.9999999962e+01 0.0000e+00 0.0000e+00
  9000006  2    3    3    0    0 -2.4366518948e+01 -1.5512384921e+01 -1.2507304024e+02 1.3445306513e+02 3.9999999946e+01 0.0000e+00 0.0000e+00
      -11  1    5    5    0    0 -1.0014227644e+01 -2.7195084463e+01 -9.3148176121e+01 9.7552242870e+01 0.0000000000e+00 0.0000e+00 1.0000e+00
       13  1    4    4    0    0 +2.5772888336e+00 +8.4800119507e+00 +1.3897772890e+01 1.6483358630e+01 0.0000000000e+00 0.0000e+00 1.0000e+00
      -11  1    4    4    0    0 +2.1789230115e+01 +7.0323729707e+00 -2.5366291577e+01 3.4171238885e+01 0.0000000000e+00 0.0000e+00 1.0000e+00
       13  1    5    5    0    0 -1.4352291304e+01 +1.1682699542e+01 -3.1924864118e+01 3.6900822257e+01 0.0000000000e+00 0.0000e+00 1.0000e+00
<mgrwt>
<rscale>  0 0.12498500E+03</rscale>
<asrwt>0</asrwt>
<pdfrwt beam="1">  1       21 0.60707630E-02 0.12498500E+03</pdfrwt>
<pdfrwt beam="2">  1       21 0.40206152E-01 0.12498500E+03</pdfrwt>
<totfact> 0.11519787E+06</totfact>
</mgrwt>
</event>
<event>
 9      1 +9.5563000e+06 1.24999700e+02 7.81860800e-03 1.23507000e-01
       21 -1    0    0  502  501 +0.0000000000e+00 +0.0000000000e+00 +8.3651296338e+00 8.3651296338e+00 0.0000000000e+00 0.0000e+00 1.0000e+00
       21 -1    0    0  501  502 -0.0000000000e+00 -0.0000000000e+00 -4.6696621318e+02 4.6696621318e+02 0.0000000000e+00 0.0000e+00 1.0000e+00
       25  2    1    2    0    0 +1.4210854715e-14 +0.0000000000e+00 -4.5860108355e+02 4.7533134282e+02 1.2499972653e+02 0.0000e+00 0.0000e+00
  9000006  2    3    3    0    0 +4.4070443197e+01 -1.8953150771e+01 -2.3763783683e+02 2.4570951829e+02 3.9999999979e+01 0.0000e+00 0.0000e+00
  9000006  2    3    3    0    0 -4.4070443197e+01 +1.8953150771e+01 -2.2096324672e+02 2.2962182453e+02 4.0000000121e+01 0.0000e+00 0.0000e+00
      -11  1    5    5    0    0 -8.5498985031e+00 +2.2775468406e+01 -1.2214154948e+02 1.2454067944e+02 0.0000000000e+00 0.0000e+00 1.0000e+00
       13  1    4    4    0    0 +2.7416287713e+01 -9.5581418717e+00 -5.6107176447e+01 6.3174568910e+01 0.0000000000e+00 0.0000e+00 1.0000e+00
      -11  1    4    4    0    0 +1.6654155484e+01 -9.3950088990e+00 -1.8153066038e+02 1.8253494938e+02 0.0000000000e+00 0.0000e+00 1.0000e+00
       13  1    5    5    0    0 -3.5520544694e+01 -3.8223176356e+00 -9.8821697238e+01 1.0508114509e+02 0.0000000000e+00 0.0000e+00 1.0000e+00
<mgrwt>
<rscale>  0 0.12499973E+03</rscale>
<asrwt>0</asrwt>
<pdfrwt beam="1">  1       21 0.20912824E-02 0.12499973E+03</pdfrwt>
<pdfrwt beam="2">  1       21 0.11674155E+00 0.12499973E+03</pdfrwt>
<totfact> 0.65430250E+05</totfact>
</mgrwt>
</event>
<event>
 9      1 +9.5563000e+06 1.24992300e+02 7.81860800e-03 1.23508100e-01
       21 -1    0    0  502  501 +0.0000000000e+00 +0.0000000000e+00 +8.0680125815e+01 8.0680125815e+01 0.0000000000e+00 0.0000e+00 1.0000e+00
       21 -1    0    0  501  502 -0.0000000000e+00 -0.0000000000e+00 -4.8410549707e+01 4.8410549707e+01 0.0000000000e+00 0.0000e+00 1.0000e+00
       25  2    1    2    0    0 +3.5527136788e-15 -7.1054273576e-15 +3.2269576108e+01 1.2909067552e+02 1.2499230762e+02 0.0000e+00 0.0000e+00
  9000006  2    3    3    0    0 +1.7810155429e+01 +3.9500781479e+01 +3.7507678209e+01 6.9888048362e+01 4.0000000068e+01 0.0000e+00 0.0000e+00
  9000006  2    3    3    0    0 -1.7810155429e+01 -3.9500781479e+01 -5.2381021005e+00 5.9202627159e+01 3.9999999688e+01 0.0000e+00 0.0000e+00
      -11  1    4    4    0    0 +1.8049171023e+01 +8.5077439417e+00 +3.3006142239e+01 3.8568895591e+01 0.0000000000e+00 0.0000e+00 1.0000e+00
       13  1    4    4    0    0 -2.3901559413e-01 +3.0993037537e+01 +4.5015359699e+00 3.1319152772e+01 0.0000000000e+00 0.0000e+00 1.0000e+00
      -11  1    5    5    0    0 -2.8842361690e+01 -3.7674750923e+01 -6.7255402643e+00 4.7921827770e+01 0.0000000000e+00 0.0000e+00 1.0000e+00
       13  1    5    5    0    0 +1.1032206260e+01 -1.8260305557e+00 +1.4874381637e+00 1.1280799389e+01 0.0000000000e+00 0.0000e+00 1.0000e+00
<mgrwt>
<rscale>  0 0.12499231E+03</rscale>
<asrwt>0</asrwt>
<pdfrwt beam="1">  1       21 0.20170031E-01 0.12499231E+03</pdfrwt>
<pdfrwt beam="2">  1       21 0.12102638E-01 0.12499231E+03</pdfrwt>
<totfact> 0.13100928E+06</totfact>
</mgrwt>
</event>
<event>
 9      1 +9.5563000e+06 1.25003700e+02 7.81860800e-03 1.23506400e-01
       21 -1    0    0  502  501 +0.0000000000e+00 +0.0000000000e+00 +1.3779855118e+01 1.3779855118e+01 0.0000000000e+00 0.0000e+00 1.0000e+00
       21 -1    0    0  501  502 -0.0000000000e+00 -0.0000000000e+00 -2.8349216927e+02 2.8349216927e+02 0.0000000000e+00 0.0000e+00 1.0000e+00
       25  2    1    2    0    0 +0.0000000000e+00 +0.0000000000e+00 -2.6971231415e+02 2.9727202439e+02 1.2500369626e+02 0.0000e+00 0.0000e+00
  9000006  2    3    3    0    0 -3.4005994398e+01 +5.4345348234e+00 -2.1446195773e+02 2.2086166045e+02 3.9999999018e+01 0.0000e+00 0.0000e+00
  9000006  2    3    3    0    0 +3.4005994398e+01 -5.4345348234e+00 -5.5250356422e+01 7.6410363934e+01 4.0000000101e+01 0.0000e+00 0.0000e+00
      -11  1    4    4    0    0 -2.9478959658e+01 +1.5373517522e+00 -6.6243937220e+01 7.2523318535e+01 0.0000000000e+00 0.0000e+00 1.0000e+00
       13  1    4    4    0    0 -4.5270347400e+00 +3.8971830712e+00 -1.4821802051e+02 1.4833834192e+02 0.0000000000e+00 0.0000e+00 1.0000e+00
      -11  1    5    5    0    0 +3.9975908363e+01 -8.0648073159e+00 -5.6587164455e+01 6.9751140117e+01 0.0000000000e+00 0.0000e+00 1.0000e+00
       13  1    5    5    0    0 -5.9699139648e+00 +2.6302724925e+00 +1.3368080336e+00 6.6592238174e+00 0.0000000000e+00 0.0000e+00 1.0000e+00
<mgrwt>
<rscale>  0 0.12500370E+03</rscale>
<asrwt>0</asrwt>
<pdfrwt beam="1">  1       21 0.34449638E-02 0.12500370E+03</pdfrwt>
<pdfrwt beam="2">  1       21 0.70873042E-01 0.12500370E+03</pdfrwt>
<totfact> 0.91055782E+05</totfact>
</mgrwt>
</event>
<event>
 9      1 +9.5563000e+06 1.25010100e+02 7.81860800e-03 1.23505400e-01
       21 -1    0    0  502  501 +0.0000000000e+00 +0.0000000000e+00 +8.4136168841e+02 8.4136168841e+02 0.0000000000e+00 0.0000e+00 -1.0000e+00
       21 -1    0    0  501  502 -0.0000000000e+00 -0.0000000000e+00 -4.6435214319e+00 4.6435214319e+00 0.0000000000e+00 0.0000e+00 -1.0000e+00
       25  2    1    2    0    0 +3.5527136788e-15 +3.5527136788e-15 +8.3671816698e+02 8.4600520985e+02 1.2501009611e+02 0.0000e+00 0.0000e+00
  9000006  2    3    3    0    0 -1.3030831000e+01 +2.2489111194e+01 +1.4502278498e+02 1.5266686228e+02 3.9999999986e+01 0.0000e+00 0.0000e+00
  9000006  2    3    3    0    0 +1.3030831000e+01 -2.2489111194e+01 +6.9169538201e+02 6.9333834756e+02 4.0000000388e+01 0.0000e+00 0.0000e+00
      -11  1    4    4    0    0 +7.6509248119e+00 -1.8180212207e+00 +5.6412221693e+00 9.6780803468e+00 0.0000000000e+00 0.0000e+00 1.0000e+00
       13  1    4    4    0    0 -2.0681755812e+01 +2.4307132415e+01 +1.3938156281e+02 1.4298878194e+02 0.0000000000e+00 0.0000e+00 1.0000e+00
      -11  1    5    5    0    0 +2.0346308136e+00 -3.2092415689e+01 +5.3451260182e+02 5.3547902328e+02 0.0000000000e+00 0.0000e+00 1.0000e+00
       13  1    5    5    0    0 +1.0996200187e+01 +9.6033044943e+00 +1.5718278018e+02 1.5785932428e+02 0.0000000000e+00 0.0000e+00 1.0000e+00
<mgrwt>
<rscale>  0 0.12501010E+03</rscale>
<asrwt>0</asrwt>
<pdfrwt beam="1">  1       21 0.21033990E+00 0.12501010E+03</pdfrwt>
<pdfrwt beam="2">  1       21 0.11608832E-02 0.12501010E+03</pdfrwt>
<totfact> 0.35276579E+05</totfact>
</mgrwt>
</event>
<event>
 9      1 +9.5563000e+06 1.25002300e+02 7.81860800e-03 1.23506600e-01
       21 -1    0    0  502  501 +0.0000000000e+00 +0.0000000000e+00 +1.3197663735e+01 1.3197663735e+01 0.0000000000e+00 0.0000e+00 1.0000e+00
       21 -1    0    0  501  502 -0.0000000000e+00 -0.0000000000e+00 -2.9599120853e+02 2.9599120853e+02 0.0000000000e+00 0.0000e+00 1.0000e+00
       25  2    1    2    0    0 -3.5527136788e-15 +8.8817841970e-16 -2.8279354479e+02 3.0918887226e+02 1.2500227900e+02 0.0000e+00 0.0000e+00
  9000006  2    3    3    0    0 +2.4056077565e+01 -3.3747252275e+00 -3.8925143885e+01 6.0870768624e+01 4.0000000103e+01 0.0000e+00 0.0000e+00
  9000006  2    3    3    0    0 -2.4056077565e+01 +3.3747252275e+00 -2.4386840091e+02 2.4831810364e+02 3.9999999945e+01 0.0000e+00 0.0000e+00
      -11  1    5    5    0    0 -7.1052620733e+00 -1.5227367557e+01 -4.8351578661e+01 5.1188207928e+01 0.0000000000e+00 0.0000e+00 1.0000e+00
       13  1    4    4    0    0 -1.0066602098e+01 -7.1732388754e+00 -1.2135208676e+01 1.7322099277e+01 0.0000000000e+00 0.0000e+00 1.0000e+00
      -11  1    4    4    0    0 +3.4122679663e+01 +3.7985136479e+00 -2.6789935209e+01 4.3548669346e+01 0.0000000000e+00 0.0000e+00 1.0000e+00
       13  1    5    5    0    0 -1.6950815491e+01 +1.8602092785e+01 -1.9551682225e+02 1.9712989571e+02 0.0000000000e+00 0.0000e+00 1.0000e+00
<mgrwt>
<rscale>  0 0.12500228E+03</rscale>
<asrwt>0</asrwt>
<pdfrwt beam="1">  1       21 0.32994159E-02 0.12500228E+03</pdfrwt>
<pdfrwt beam="2">  1       21 0.73997804E-01 0.12500228E+03</pdfrwt>
<totfact> 0.88945531E+05</totfact>
</mgrwt>
</event>
<event>
 9      1 +9.5563000e+06 1.24926200e+02 7.81860800e-03 1.23518500e-01
       21 -1    0    0  502  501 +0.0000000000e+00 +0.0000000000e+00 +2.9823245859e+00 2.9823245859e+00 0.0000000000e+00 0.0000e+00 1.0000e+00
       21 -1    0    0  501  502 -0.0000000000e+00 -0.0000000000e+00 -1.3082537831e+03 1.3082537831e+03 0.0000000000e+00 0.0000e+00 1.0000e+00
       25  2    1    2    0    0 -8.8817841970e-16 +7.1054273576e-15 -1.3052714586e+03 1.3112361077e+03 1.2492617695e+02 0.0000e+00 0.0000e+00
  9000006  2    3    3    0    0 -1.5261489649e+00 +3.9472621215e+01 -9.3839554069e+02 9.4007797961e+02 4.0000000076e+01 0.0000e+00 0.0000e+00
  9000006  2    3    3    0    0 +1.5261489649e+00 -3.9472621215e+01 -3.6687591787e+02 3.7115812812e+02 4.0000000013e+01 0.0000e+00 0.0000e+00
      -11  1    4    4    0    0 +3.3001476952e+00 +1.8929180894e+00 -7.4818855484e+00 8.3936121582e+00 0.0000000000e+00 0.0000e+00 1.0000e+00
       13  1    4    4    0    0 -4.8262966601e+00 +3.7579703125e+01 -9.3091365514e+02 9.3168436745e+02 0.0000000000e+00 0.0000e+00 1.0000e+00
      -11  1    5    5    0    0 +1.1333891994e+01 -1.3053465253e+01 -2.6175890469e+02 2.6232913344e+02 0.0000000000e+00 0.0000e+00 1.0000e+00
       13  1    5    5    0    0 -9.8077430294e+00 -2.6419155961e+01 -1.0511701318e+02 1.0882899469e+02 0.0000000000e+00 0.0000e+00 1.0000e+00
<mgrwt>
<rscale>  0 0.12492618E+03</rscale>
<asrwt>0</asrwt>
<pdfrwt beam="1">  1       21 0.74558180E-03 0.12492618E+03</pdfrwt>
<pdfrwt beam="2">  1       21 0.32706316E+00 0.12492618E+03</pdfrwt>
<totfact> 0.15195708E+05</totfact>
</mgrwt>
</event>
<event>
 9      1 +9.5563000e+06 1.25001100e+02 7.81860800e-03 1.23506800e-01
       21 -1    0    0  502  501 +0.0000000000e+00 +0.0000000000e+00 +1.9068983913e+01 1.9068983913e+01 0.0000000000e+00 0.0000e+00 1.0000e+00
       21 -1    0    0  501  502 -0.0000000000e+00 -0.0000000000e+00 -2.0485206871e+02 2.0485206871e+02 0.0000000000e+00 0.0000e+00 1.0000e+00
       25  2    1    2    0    0 -3.5527136788e-15 +0.0000000000e+00 -1.8578308480e+02 2.2392105262e+02 1.2500113284e+02 0.0000e+00 0.0000e+00
  9000006  2    3    3    0    0 +1.3597242525e+01 -1.6738063396e+01 -1.6024516607e+01 4.8185401016e+01 3.9999999601e+01 0.0000e+00 0.0000e+00
  9000006  2    3    3    0    0 -1.3597242525e+01 +1.6738063396e+01 -1.6975856819e+02 1.7573565161e+02 4.0000000013e+01 0.0000e+00 0.0000e+00
      -11  1    4    4    0    0 +2.6416511550e+01 -4.1809055653e+00 -5.2540616523e+00 2.7256507804e+01 0.0000000000e+00 0.0000e+00 1.0000e+00
       13  1    4    4    0    0 -1.2819269026e+01 -1.2557157831e+01 -1.0770454955e+01 2.0928893212e+01 0.0000000000e+00 0.0000e+00 1.0000e+00
      -11  1    5    5    0    0 -2.0106568687e+01 +1.8034844674e+01 -6.0262607219e+01 6.6038712553e+01 0.0000000000e+00 0.0000e+00 1.0000e+00
       13  1    5    5    0    0 +6.5093261626e+00 -1.2967812775e+00 -1.0949596097e+02 1.0969693906e+02 0.0000000000e+00 0.0000e+00 1.0000e+00
<mgrwt>
<rscale>  0 0.12500113E+03</rscale>
<asrwt>0</asrwt>
<pdfrwt beam="1">  1       21 0.47672460E-02 0.12500113E+03</pdfrwt>
<pdfrwt beam="2">  1       21 0.51213017E-01 0.12500113E+03</pdfrwt>
<totfact> 0.10583736E+06</totfact>
</mgrwt>
</event>
<event>
 9      1 +9.5563000e+06 1.24977800e+02 7.81860800e-03 1.23510400e-01
       21 -1    0    0  502  501 +0.0000000000e+00 +0.0000000000e+00 +1.9203387651e+02 1.9203387651e+02 0.0000000000e+00 0.0000e+00 1.0000e+00
       21 -1    0    0  501  502 -0.0000000000e+00 -0.0000000000e+00 -2.0334250234e+01 2.0334250234e+01 0.0000000000e+00 0.0000e+00 1.0000e+00
       25  2    1    2    0    0 -7.1054273576e-15 +0.0000000000e+00 +1.7169962628e+02 2.1236812675e+02 1.2497783641e+02 0.0000e+00 0.0000e+00
  9000006  2    3    3    0    0 +3.6188476521e+01 +2.9534666222e+01 +1.0469249686e+02 1.2141837279e+02 4.0000000114e+01 0.0000e+00 0.0000e+00
  9000006  2    3    3    0    0 -3.6188476521e+01 -2.9534666222e+01 +6.7007129415e+01 9.0949753958e+01 4.0000000136e+01 0.0000e+00 0.0000e+00
      -11  1    5    5    0    0 -3.9334847916e+01 -8.5212129106e+00 +4.4221468525e+01 5.9794478078e+01 0.0000000000e+00 0.0000e+00 1.0000e+00
       13  1    4    4    0    0 +4.9144838614e+00 +2.5976724468e+01 +6.8661084627e+01 7.3575042697e+01 0.0000000000e+00 0.0000e+00 1.0000e+00
      -11  1    4    4    0    0 +3.1273992660e+01 +3.5579417539e+00 +3.6031412238e+01 4.7843330091e+01 0.0000000000e+00 0.0000e+00 1.0000e+00
       13  1    5    5    0    0 +3.1463713952e+00 -2.1013453311e+01 +2.2785660890e+01 3.1155275881e+01 0.0000000000e+00 0.0000e+00 1.0000e+00
<mgrwt>
<rscale>  0 0.12497784E+03</rscale>
<asrwt>0</asrwt>
<pdfrwt beam="1">  1       21 0.48008464E-01 0.12497784E+03</pdfrwt>
<pdfrwt beam="2">  1       21 0.50835631E-02 0.12497784E+03</pdfrwt>
<totfact> 0.10854805E+06</totfact>
</mgrwt>
</event>
<event>
 9      1 +9.5563000e+06 1.24997500e+02 7.81860800e-03 1.23507300e-01
       21 -1    0    0  502  501 +0.0000000000e+00 +0.0000000000e+00 +7.7092864517e+02 7.7092864517e+02 0.0000000000e+00 0.0000e+00 -1.0000e+00
       21 -1    0    0  501  502 -0.0000000000e+00 -0.0000000000e+00 -5.0667345272e+00 5.0667345272e+00 0.0000000000e+00 0.0000e+00 -1.0000e+00
       25  2    1    2    0    0 +0.0000000000e+00 +0.0000000000e+00 +7.6586191064e+02 7.7599537969e+02 1.2499745253e+02 0.0000e+00 0.0000e+00
  9000006  2    3    3    0    0 +1.2507612027e+01 +3.4516872790e+01 +5.7510476400e+02 5.7766196381e+02 3.9999999893e+01 0.0000e+00 0.0000e+00
  9000006  2    3    3    0    0 -1.2507612027e+01 -3.4516872790e+01 +1.9075714663e+02 1.9833341588e+02 3.9999999954e+01 0.0000e+00 0.0000e+00
      -11  1    4    4    0    0 +7.7644001667e+00 -6.0837443837e-01 +2.0560450064e+01 2.1986089608e+01 0.0000000000e+00 0.0000e+00 1.0000e+00
       13  1    4    4    0    0 +4.7432118598e+00 +3.5125247228e+01 +5.5454431394e+02 5.5567587421e+02 0.0000000000e+00 0.0000e+00 1.0000e+00
      -11  1    5    5    0    0 -4.6664965133e+00 -4.2354172983e+01 +1.3820390187e+02 1.4462354805e+02 0.0000000000e+00 0.0000e+00 1.0000e+00
       13  1    5    5    0    0 -7.8411155132e+00 +7.8373001936e+00 +5.2553244762e+01 5.3709867826e+01 0.0000000000e+00 0.0000e+00 1.0000e+00
<mgrwt>
<rscale>  0 0.12499745E+03</rscale>
<asrwt>0</asrwt>
<pdfrwt beam="1">  1       21 0.19273176E+00 0.12499745E+03</pdfrwt>
<pdfrwt beam="2">  1       21 0.12666863E-02 0.12499745E+03</pdfrwt>
<totfact> 0.39588495E+05</totfact>
</mgrwt>
</event>
<event>
 8      1 +9.5563000e+06 1.24997900e+02 7.81860800e-03 1.23507300e-01
       21 -1    0    0  502  501 +0.0000000000e+00 +0.0000000000e+00 +6.8771938900e+00 6.8771938900e+00 0.0000000000e+00 0.0000e+00 1.0000e+00
       21 -1    0    0  501  502 -0.0000000000e+00 -0.0000000000e+00 -5.6798147230e+02 5.6798147230e+02 0.0000000000e+00 0.0000e+00 1.0000e+00
       25  2    1    2    0    0 +0.0000000000e+00 -7.1054273576e-15 -5.6110427841e+02 5.7485866619e+02 1.2499789936e+02 0.0000e+00 0.0000e+00
  9000006  2    3    3    0    0 +3.2866707928e+01 +3.4842583950e+01 -2.6469225658e+02 2.7194892324e+02 4.0000000125e+01 0.0000e+00 0.0000e+00
      -11  1    3    3    0    0 -1.5192354474e+01 -3.6881663406e+01 -1.4265140290e+02 1.4812321722e+02 0.0000000000e+00 0.0000e+00 1.0000e+00
       13  1    4    4    0    0 +3.4937506835e+01 +3.8740994420e+01 -1.8725725593e+02 1.9438820419e+02 0.0000000000e+00 0.0000e+00 1.0000e+00
      -11  1    4    4    0    0 -2.0707989077e+00 -3.8984104697e+00 -7.7435000651e+01 7.7560719041e+01 0.0000000000e+00 0.0000e+00 1.0000e+00
       13  1    3    3    0    0 -1.7674353454e+01 +2.0390794560e+00 -1.5376061893e+02 1.5478652574e+02 0.0000000000e+00 0.0000e+00 1.0000e+00
<mgrwt>
<rscale>  0 0.12499790E+03</rscale>
<asrwt>0</asrwt>
<pdfrwt beam="1">  1       21 0.17192986E-02 0.12499790E+03</pdfrwt>
<pdfrwt beam="2">  1       21 0.14199536E+00 0.12499790E+03</pdfrwt>
<totfact> 0.55161808E+05</totfact>
</mgrwt>
</event>
<event>
 9      1 +9.5563000e+06 1.25013600e+02 7.81860800e-03 1.23504800e-01
       21 -1    0    0  502  501 +0.0000000000e+00 +0.0000000000e+00 +1.0525891181e+03 1.0525891181e+03 0.0000000000e+00 0.0000e+00 1.0000e+00
       21 -1    0    0  501  502 -0.0000000000e+00 -0.0000000000e+00 -3.7118963756e+00 3.7118963756e+00 0.0000000000e+00 0.0000e+00 1.0000e+00
       25  2    1    2    0    0 +0.0000000000e+00 -1.3322676296e-15 +1.0488772217e+03 1.0563010144e+03 1.2501362697e+02 0.0000e+00 0.0000e+00
  9000006  2    3    3    0    0 +3.9071841400e+01 +7.4801527150e-01 +2.8846735519e+02 2.9383768196e+02 4.0000000093e+01 0.0000e+00 0.0000e+00
  9000006  2    3    3    0    0 -3.9071841400e+01 -7.4801527150e-01 +7.6040986649e+02 7.6246333248e+02 4.0000000036e+01 0.0000e+00 0.0000e+00
      -11  1    4    4    0    0 +4.7113312608e+01 +3.7073092775e+00 +2.4998778888e+02 2.5441561068e+02 0.0000000000e+00 0.0000e+00 1.0000e+00
       13  1    4    4    0    0 -8.0414712086e+00 -2.9592940060e+00 +3.8479566314e+01 3.9422071279e+01 0.0000000000e+00 0.0000e+00 1.0000e+00
      -11  1    5    5    0    0 -1.5140603403e+01 +8.0900892356e+00 +9.3315610943e+01 9.4881455833e+01 0.0000000000e+00 0.0000e+00 1.0000e+00
       13  1    5    5    0    0 -2.3931237997e+01 -8.8381045071e+00 +6.6709425554e+02 6.6758187664e+02 0.0000000000e+00 0.0000e+00 1.0000e+00
<mgrwt>
<rscale>  0 0.12501363E+03</rscale>
<asrwt>0</asrwt>
<pdfrwt beam="1">  1       21 0.26314626E+00 0.12501363E+03</pdfrwt>
<pdfrwt beam="2">  1       21 0.92797770E-03 0.12501363E+03</pdfrwt>
<totfact> 0.24671723E+05</totfact>
</mgrwt>
</event>
<event>
 9      1 +9.5563000e+06 1.25001600e+02 7.81860800e-03 1.23506700e-01
       21 -1    0    0  502  501 +0.0000000000e+00 +0.0000000000e+00 +3.0741391199e+02 3.0741391199e+02 0.0000000000e+00 0.0000e+00 -1.0000e+00
       21 -1    0    0  501  502 -0.0000000000e+00 -0.0000000000e+00 -1.2707125208e+01 1.2707125208e+01 0.0000000000e+00 0.0000e+00 -1.0000e+00
       25  2    1    2    0    0 +0.0000000000e+00 -4.4408920985e-16 +2.9470678678e+02 3.2012103720e+02 1.2500155312e+02 0.0000e+00 0.0000e+00
  9000006  2    3    3    0    0 +4.3895339408e+01 +2.7851626363e+00 +1.9673294547e+02 2.0551985254e+02 4.0000000045e+01 0.0000e+00 0.0000e+00
  9000006  2    3    3    0    0 -4.3895339408e+01 -2.7851626363e+00 +9.7973841317e+01 1.1460118466e+02 3.9999999880e+01 0.0000e+00 0.0000e+00
      -11  1    5    5    0    0 -5.0855321819e+01 +2.0050586924e+00 +8.6316859315e+01 1.0020421258e+02 0.0000000000e+00 0.0000e+00 1.0000e+00
       13  1    4    4    0    0 +3.2359586754e+01 +2.0504091097e+01 +1.2703277683e+02 1.3268340890e+02 0.0000000000e+00 0.0000e+00 1.0000e+00
      -11  1    4    4    0    0 +1.1535752654e+01 -1.7718928460e+01 +6.9700168632e+01 7.2836443642e+01 0.0000000000e+00 0.0000e+00 1.0000e+00
       13  1    5    5    0    0 +6.9599824111e+00 -4.7902213287e+00 +1.1656982003e+01 1.4396972076e+01 0.0000000000e+00 0.0000e+00 1.0000e+00
<mgrwt>
<rscale>  0 0.12500155E+03</rscale>
<asrwt>0</asrwt>
<pdfrwt beam="1">  1       21 0.76853454E-01 0.12500155E+03</pdfrwt>
<pdfrwt beam="2">  1       21 0.31767823E-02 0.12500155E+03</pdfrwt>
<totfact> 0.87069980E+05</totfact>
</mgrwt>
</event>
<event>
 9      1 +9.5563000e+06 1.25006900e+02 7.81860800e-03 1.23505800e-01
       21 -1    0    0  502  501 +0.0000000000e+00 +0.0000000000e+00 +1.1133484587e+02 1.1133484587e+02 0.0000000000e+00 0.0000e+00 1.0000e+00
       21 -1    0    0  501  502 -0.0000000000e+00 -0.0000000000e+00 -3.5089496065e+01 3.5089496065e+01 0.0000000000e+00 0.0000e+00 1.0000e+00
       25  2    1    2    0    0 +0.0000000000e+00 +0.0000000000e+00 +7.6245349804e+01 1.4642434193e+02 1.2500693798e+02 0.0000e+00 0.0000e+00
  9000006  2    3    3    0    0 -3.2659346857e+01 -3.2096666704e+01 +5.5090981604e+01 8.2047822718e+01 4.0000000099e+01 0.0000e+00 0.0000e+00
  9000006  2    3    3    0    0 +3.2659346857e+01 +3.2096666704e+01 +2.1154368199e+01 6.4376519216e+01 3.9999999773e+01 0.0000e+00 0.0000e+00
      -11  1    5    5    0    0 +3.2826013081e+01 +2.9574837590e+01 +1.1352455210e+00 4.4198494721e+01 0.0000000000e+00 0.0000e+00 1.0000e+00
       13  1    4    4    0    0 -8.5287239675e+00 +8.9269480046e+00 +6.1975245787e+00 1.3814443315e+01 0.0000000000e+00 0.0000e+00 1.0000e+00
      -11  1    4    4    0    0 -2.4130622890e+01 -4.1023614709e+01 +4.8893457026e+01 6.8233379403e+01 0.0000000000e+00 0.0000e+00 1.0000e+00
       13  1    5    5    0    0 -1.6666622348e-01 +2.5218291146e+00 +2.0019122678e+01 2.0178024495e+01 0.0000000000e+00 0.0000e+00 1.0000e+00
<mgrwt>
<rscale>  0 0.12500694E+03</rscale>
<asrwt>0</asrwt>
<pdfrwt beam="1">  1       21 0.27833711E-01 0.12500694E+03</pdfrwt>
<pdfrwt beam="2">  1       21 0.87723743E-02 0.12500694E+03</pdfrwt>
<totfact> 0.12571614E+06</totfact>
</mgrwt>
</event>
<event>
 9      1 +9.5563000e+06 1.25018000e+02 7.81860800e-03 1.23504100e-01
       21 -1    0    0  502  501 +0.0000000000e+00 +0.0000000000e+00 +3.3905719090e+01 3.3905719090e+01 0.0000000000e+00 0.0000e+00 1.0000e+00
       21 -1    0    0  501  502 -0.0000000000e+00 -0.0000000000e+00 -1.1524230211e+02 1.1524230211e+02 0.0000000000e+00 0.0000e+00 1.0000e+00
       25  2    1    2    0    0 +7.1054273576e-15 -1.7763568394e-15 -8.1336583016e+01 1.4914802120e+02 1.2501796867e+02 0.0000e+00 0.0000e+00
  9000006  2    3    3    0    0 -3.8977925560e+01 -4.6287558916e+00 -7.3701368261e+01 9.2588313235e+01 4.0000000026e+01 0.0000e+00 0.0000e+00
  9000006  2    3    3    0    0 +3.8977925560e+01 +4.6287558916e+00 -7.6352147546e+00 5.6559707961e+01 3.9999999977e+01 0.0000e+00 0.0000e+00
      -11  1    5    5    0    0 +2.2187534317e+01 -7.2727556946e+00 -2.1503598748e+01 3.1742470187e+01 0.0000000000e+00 0.0000e+00 1.0000e+00
       13  1    4    4    0    0 -4.6108343214e+01 -9.1556056785e+00 -6.6792766454e+01 8.1676667903e+01 0.0000000000e+00 0.0000e+00 1.0000e+00
      -11  1    4    4    0    0 +7.1304176538e+00 +4.5268497869e+00 -6.9086018072e+00 1.0911645332e+01 0.0000000000e+00 0.0000e+00 1.0000e+00
       13  1    5    5    0    0 +1.6790391243e+01 +1.1901511586e+01 +1.3868383993e+01 2.4817237773e+01 0.0000000000e+00 0.0000e+00 1.0000e+00
<mgrwt>
<rscale>  0 0.12501797E+03</rscale>
<asrwt>0</asrwt>
<pdfrwt beam="1">  1       21 0.84764299E-02 0.12501797E+03</pdfrwt>
<pdfrwt beam="2">  1       21 0.28810575E-01 0.12501797E+03</pdfrwt>
<totfact> 0.12488186E+06</totfact>
</mgrwt>
</event>
<event>
 9      1 +9.5563000e+06 1.24983000e+02 7.81860800e-03 1.23509600e-01
       21 -1    0    0  502  501 +0.0000000000e+00 +0.0000000000e+00 +1.0940183655e+02 1.0940183655e+02 0.0000000000e+00 0.0000e+00 -1.0000e+00
       21 -1    0    0  501  502 -0.0000000000e+00 -0.0000000000e+00 -3.5695820451e+01 3.5695820451e+01 0.0000000000e+00 0.0000e+00 -1.0000e+00
       25  2    1    2    0    0 +0.0000000000e+00 +7.1054273576e-15 +7.3706016101e+01 1.4509765700e+02 1.2498301188e+02 0.0000e+00 0.0000e+00
  9000006  2    3    3    0    0 +1.5321944995e+01 -3.6824651057e+01 +5.8237465381e+00 5.6786732152e+01 4.0000000012e+01 0.0000e+00 0.0000e+00
  9000006  2    3    3    0    0 -1.5321944995e+01 +3.6824651057e+01 +6.7882269563e+01 8.8310924852e+01 4.0000000040e+01 0.0000e+00 0.0000e+00
      -11  1    5    5    0    0 -1.1608495868e+01 +4.5419218789e+01 +5.3310741853e+01 7.0990829045e+01 0.0000000000e+00 0.0000e+00 1.0000e+00
       13  1    4    4    0    0 -1.4648101522e+00 -1.2210886742e+01 +2.0244236736e+01 2.3687138807e+01 0.0000000000e+00 0.0000e+00 1.0000e+00
      -11  1    4    4    0    0 +1.6786755147e+01 -2.4613764315e+01 -1.4420490198e+01 3.3099593346e+01 0.0000000000e+00 0.0000e+00 1.0000e+00
       13  1    5    5    0    0 -3.7134491265e+00 -8.5945677319e+00 +1.4571527711e+01 1.7320095806e+01 0.0000000000e+00 0.0000e+00 1.0000e+00
<mgrwt>
<rscale>  0 0.12498301E+03</rscale>
<asrwt>0</asrwt>
<pdfrwt beam="1">  1       21 0.27350458E-01 0.12498301E+03</pdfrwt>
<pdfrwt beam="2">  1       21 0.89239554E-02 0.12498301E+03</pdfrwt>
<totfact> 0.12618718E+06</totfact>
</mgrwt>
</event>
<event>
 9      1 +9.5563000e+06 1.25047000e+02 7.81860800e-03 1.23499600e-01
       21 -1    0    0  502  501 +0.0000000000e+00 +0.0000000000e+00 +1.3053865173e+01 1.3053865173e+01 0.0000000000e+00 0.0000e+00 1.0000e+00
       21 -1    0    0  501  502 -0.0000000000e+00 -0.0000000000e+00 -2.9946594573e+02 2.9946594573e+02 0.0000000000e+00 0.0000e+00 1.0000e+00
       25  2    1    2    0    0 +0.0000000000e+00 -4.4408920985e-16 -2.8641208056e+02 3.1251981091e+02 1.2504700044e+02 0.0000e+00 0.0000e+00
  9000006  2    3    3    0    0 -4.1768023823e+01 +2.0236717833e+00 -2.0237606826e+02 2.1048690238e+02 4.0000000093e+01 0.0000e+00 0.0000e+00
  9000006  2    3    3    0    0 +4.1768023823e+01 -2.0236717833e+00 -8.4036012301e+01 1.0203290853e+02 3.9999999971e+01 0.0000e+00 0.0000e+00
      -11  1    5    5    0    0 +3.6352242448e+01 +4.7125762306e-01 -2.8545292632e+01 4.6222736247e+01 0.0000000000e+00 0.0000e+00 1.0000e+00
       13  1    4    4    0    0 -4.7209887944e+01 -6.1712091998e+00 -1.7633871628e+02 1.8265322390e+02 0.0000000000e+00 0.0000e+00 1.0000e+00
      -11  1    4    4    0    0 +5.4418641211e+00 +8.1948809831e+00 -2.6037351980e+01 2.7833678477e+01 0.0000000000e+00 0.0000e+00 1.0000e+00
       13  1    5    5    0    0 +5.4157813752e+00 -2.4949294064e+00 -5.5490719669e+01 5.5810172281e+01 0.0000000000e+00 0.0000e+00 1.0000e+00
<mgrwt>
<rscale>  0 0.12504700E+03</rscale>
<asrwt>0</asrwt>
<pdfrwt beam="1">  1       21 0.32634665E-02 0.12504700E+03</pdfrwt>
<pdfrwt beam="2">  1       21 0.74866482E-01 0.12504700E+03</pdfrwt>
<totfact> 0.88265144E+05</totfact>
</mgrwt>
</event>
<event>
 9      1 +9.5563000e+06 1.24998200e+02 7.81860800e-03 1.23507200e-01
       21 -1    0    0  502  501 +0.0000000000e+00 +0.0000000000e+00 +3.5726106682e+02 3.5726106682e+02 0.0000000000e+00 0.0000e+00 -1.0000e+00
       21 -1    0    0  501  502 -0.0000000000e+00 -0.0000000000e+00 -1.0933570554e+01 1.0933570554e+01 0.0000000000e+00 0.0000e+00 -1.0000e+00
       25  2    1    2    0    0 +0.0000000000e+00 +0.0000000000e+00 +3.4632749626e+02 3.6819463737e+02 1.2499822527e+02 0.0000e+00 0.0000e+00
  9000006  2    3    3    0    0 +3.7067259661e+01 +2.4201793970e+01 +1.1833836423e+02 1.3252802352e+02 3.9999999985e+01 0.0000e+00 0.0000e+00
  9000006  2    3    3    0    0 -3.7067259661e+01 -2.4201793970e+01 +2.2798913203e+02 2.3566661385e+02 3.9999999873e+01 0.0000e+00 0.0000e+00
      -11  1    5    5    0    0 -3.5422701278e+01 -2.6956758808e-01 +1.4634578957e+02 1.5057201120e+02 0.0000000000e+00 0.0000e+00 1.0000e+00
       13  1    4    4    0    0 -7.3499525095e-01 +1.0329310874e-02 +5.4430338695e+01 5.4435301920e+01 0.0000000000e+00 0.0000e+00 1.0000e+00
      -11  1    4    4    0    0 +3.7802254912e+01 +2.4191464659e+01 +6.3908025540e+01 7.8092721602e+01 0.0000000000e+00 0.0000e+00 1.0000e+00
       13  1    5    5    0    0 -1.6445583826e+00 -2.3932226382e+01 +8.1643342458e+01 8.5094602646e+01 0.0000000000e+00 0.0000e+00 1.0000e+00
<mgrwt>
<rscale>  0 0.12499823E+03</rscale>
<asrwt>0</asrwt>
<pdfrwt beam="1">  1       21 0.89315228E-01 0.12499823E+03</pdfrwt>
<pdfrwt beam="2">  1       21 0.27333938E-02 0.12499823E+03</pdfrwt>
<totfact> 0.79452368E+05</totfact>
</mgrwt>
</event>
<event>
 9      1 +9.5563000e+06 1.24999900e+02 7.81860800e-03 1.23506900e-01
       21 -1    0    0  502  501 +0.0000000000e+00 +0.0000000000e+00 +3.2489913608e+01 3.2489913608e+01 0.0000000000e+00 0.0000e+00 1.0000e+00
       21 -1    0    0  501  502 -0.0000000000e+00 -0.0000000000e+00 -1.2022950505e+02 1.2022950505e+02 0.0000000000e+00 0.0000e+00 1.0000e+00
       25  2    1    2    0    0 +0.0000000000e+00 +0.0000000000e+00 -8.7739591439e+01 1.5271941865e+02 1.2499993971e+02 0.0000e+00 0.0000e+00
  9000006  2    3    3    0    0 +3.9649042620e+01 -1.6653453224e+01 -1.7755576172e+01 6.1356699413e+01 3.9999999909e+01 0.0000e+00 0.0000e+00
  9000006  2    3    3    0    0 -3.9649042620e+01 +1.6653453224e+01 -6.9984015267e+01 9.1362719242e+01 3.9999999867e+01 0.0000e+00 0.0000e+00
      -11  1    5    5    0    0 -1.3706865538e+01 +1.5498207838e+00 +1.4572578207e+00 1.3870966357e+01 0.0000000000e+00 0.0000e+00 1.0000e+00
       13  1    4    4    0    0 +4.2357638447e+01 -1.4195322034e+01 -2.6455679339e+01 5.1918972175e+01 0.0000000000e+00 0.0000e+00 1.0000e+00
      -11  1    4    4    0    0 -2.7085958264e+00 -2.4581311904e+00 +8.7001031674e+00 9.4377272382e+00 0.0000000000e+00 0.0000e+00 1.0000e+00
       13  1    5    5    0    0 -2.5942177083e+01 +1.5103632441e+01 -7.1441273088e+01 7.7491752884e+01 0.0000000000e+00 0.0000e+00 1.0000e+00
<mgrwt>
<rscale>  0 0.12499994E+03</rscale>
<asrwt>0</asrwt>
<pdfrwt beam="1">  1       21 0.81224785E-02 0.12499994E+03</pdfrwt>
<pdfrwt beam="2">  1       21 0.30057376E-01 0.12499994E+03</pdfrwt>
<totfact> 0.12390756E+06</totfact>
</mgrwt>
</event>
<event>
 9      1 +9.5563000e+06 1.24989400e+02 7.81860800e-03 1.23508600e-01
       21 -1    0    0  502  501 +0.0000000000e+00 +0.0000000000e+00 +1.2351871156e+01 1.2351871156e+01 0.0000000000e+00 0.0000e+00 -1.0000e+00
       21 -1    0    0  501  502 -0.0000000000e+00 -0.0000000000e+00 -3.1619407885e+02 3.1619407885e+02 0.0000000000e+00 0.0000e+00 -1.0000e+00
       25  2    1    2    0    0 +0.0000000000e+00 +7.1054273576e-15 -3.0384220770e+02 3.2854595001e+02 1.2498941591e+02 0.0000e+00 0.0000e+00
  9000006  2    3    3    0    0 -3.2700631070e+01 -2.8244015275e+01 -9.6875334468e+01 1.1336615940e+02 3.9999999976e+01 0.0000e+00 0.0000e+00
  9000006  2    3    3    0    0 +3.2700631070e+01 +2.8244015275e+01 -2.0696687323e+02 2.1517979061e+02 4.0000000001e+01 0.0000e+00 0.0000e+00
      -11  1    4    4    0    0 -6.3685605854e+00 +6.9982250932e+00 -3.3977824013e+00 1.0053787527e+01 0.0000000000e+00 0.0000e+00 1.0000e+00
       13  1    4    4    0    0 -2.6332070485e+01 -3.5242240368e+01 -9.3477552066e+01 1.0331237188e+02 0.0000000000e+00 0.0000e+00 1.0000e+00
      -11  1    5    5    0    0 +2.2016252656e+01 -1.0874737634e+00 -1.3421846169e+02 1.3601651899e+02 0.0000000000e+00 0.0000e+00 1.0000e+00
       13  1    5    5    0    0 +1.0684378414e+01 +2.9331489039e+01 -7.2748411539e+01 7.9163271614e+01 0.0000000000e+00 0.0000e+00 1.0000e+00
<mgrwt>
<rscale>  0 0.12498942E+03</rscale>
<asrwt>0</asrwt>
<pdfrwt beam="1">  1       21 0.30879679E-02 0.12498942E+03</pdfrwt>
<pdfrwt beam="2">  1       21 0.79048516E-01 0.12498942E+03</pdfrwt>
<totfact> 0.85688688E+05</totfact>
</mgrwt>
</event>
<event>
 9      1 +9.5563000e+06 1.24994500e+02 7.81860800e-03 1.23507800e-01
       21 -1    0    0  502  501 +0.0000000000e+00 +0.0000000000e+00 +1.2840165508e+01 1.2840165508e+01 0.0000000000e+00 0.0000e+00 -1.0000e+00
       21 -1    0    0  501  502 -0.0000000000e+00 -0.0000000000e+00 -3.0419438444e+02 3.0419438444e+02 0.0000000000e+00 0.0000e+00 -1.0000e+00
       25  2    1    2    0    0 -7.1054273576e-15 +0.0000000000e+00 -2.9135421893e+02 3.1703454994e+02 1.2499449976e+02 0.0000e+00 0.0000e+00
  9000006  2    3    3    0    0 +4.7816598836e+01 +3.6168422496e+00 -1.3926171274e+02 1.5262153614e+02 3.9999999809e+01 0.0000e+00 0.0000e+00
  9000006  2    3    3    0    0 -4.7816598836e+01 -3.6168422496e+00 -1.5209250619e+02 1.6441301381e+02 3.9999999987e+01 0.0000e+00 0.0000e+00
      -11  1    5    5    0    0 -2.7249503427e+01 +1.7187809585e+01 -9.4044129797e+01 9.9409529647e+01 0.0000000000e+00 0.0000e+00 1.0000e+00
       13  1    4    4    0    0 +4.9542610743e+01 +1.1063042898e+01 -1.3413144614e+02 1.4341585003e+02 0.0000000000e+00 0.0000e+00 1.0000e+00
      -11  1    4    4    0    0 -1.7260119071e+00 -7.4462006480e+00 -5.1302665999e+00 9.2056861004e+00 0.0000000000e+00 0.0000e+00 1.0000e+00
       13  1    5    5    0    0 -2.0567095410e+01 -2.0804651834e+01 -5.8048376391e+01 6.5003484162e+01 0.0000000000e+00 0.0000e+00 1.0000e+00
<mgrwt>
<rscale>  0 0.12499450E+03</rscale>
<asrwt>0</asrwt>
<pdfrwt beam="1">  1       21 0.32100414E-02 0.12499450E+03</pdfrwt>
<pdfrwt beam="2">  1       21 0.76048595E-01 0.12499450E+03</pdfrwt>
<totfact> 0.87610157E+05</totfact>
</mgrwt>
</event>
<event>
 9      1 +9.5563000e+06 1.24997100e+02 7.81860800e-03 1.23507400e-01
       21 -1    0    0  502  501 +0.0000000000e+00 +0.0000000000e+00 +6.2526302661e+01 6.2526302661e+01 0.0000000000e+00 0.0000e+00 -1.0000e+00
       21 -1    0    0  501  502 -0.0000000000e+00 -0.0000000000e+00 -6.2470816652e+01 6.2470816652e+01 0.0000000000e+00 0.0000e+00 -1.0000e+00
       25  2    1    2    0    0 +4.4408920985e-16 +0.0000000000e+00 +5.5486009132e-02 1.2499711931e+02 1.2499710700e+02 0.0000e+00 0.0000e+00
  9000006  2    3    3    0    0 -3.2919628243e+00 +9.9084800817e+00 -4.6845006302e+01 6.2477752920e+01 3.9999999971e+01 0.0000e+00 0.0000e+00
  9000006  2    3    3    0    0 +3.2919628243e+00 -9.9084800817e+00 +4.6900492311e+01 6.2519366394e+01 3.9999999981e+01 0.0000e+00 0.0000e+00
      -11  1    4    4    0    0 +1.4128717818e+00 +6.6811473465e+00 +6.1418819040e+00 9.1845876260e+00 0.0000000000e+00 0.0000e+00 1.0000e+00
       13  1    4    4    0    0 -4.7048346062e+00 +3.2273327353e+00 -5.2986888206e+01 5.3293165294e+01 0.0000000000e+00 0.0000e+00 1.0000e+00
      -11  1    5    5    0    0 +2.0318508775e+01 -6.1550484963e+00 +3.6478085237e+01 4.2206363541e+01 0.0000000000e+00 0.0000e+00 1.0000e+00
       13  1    5    5    0    0 -1.7026545950e+01 -3.7534315854e+00 +1.0422407074e+01 2.0313002852e+01 0.0000000000e+00 0.0000e+00 1.0000e+00
<mgrwt>
<rscale>  0 0.12499711E+03</rscale>
<asrwt>0</asrwt>
<pdfrwt beam="1">  1       21 0.15631576E-01 0.12499711E+03</pdfrwt>
<pdfrwt beam="2">  1       21 0.15617704E-01 0.12499711E+03</pdfrwt>
<totfact> 0.13227787E+06</totfact>
</mgrwt>
</event>
<event>
 9      1 +9.5563000e+06 1.25001900e+02 7.81860800e-03 1.23506600e-01
       21 -1    0    0  502  501 +0.0000000000e+00 +0.0000000000e+00 +3.8400191315e+02 3.8400191315e+02 0.0000000000e+00 0.0000e+00 1.0000e+00
       21 -1    0    0  501  502 -0.0000000000e+00 -0.0000000000e+00 -1.0172784010e+01 1.0172784010e+01 0.0000000000e+00 0.0000e+00 1.0000e+00
       25  2    1    2    0    0 -7.1054273576e-15 +1.7763568394e-15 +3.7382912914e+02 3.9417469716e+02 1.2500189634e+02 0.0000e+00 0.0000e+00
  9000006  2    3    3    0    0 +3.6131693960e+01 -8.6918449291e+00 +2.8283659387e+02 2.8805830366e+02 4.0000000015e+01 0.0000e+00 0.0000e+00
  9000006  2    3    3    0    0 -3.6131693960e+01 +8.6918449291e+00 +9.0992535268e+01 1.0611639349e+02 4.0000000213e+01 0.0000e+00 0.0000e+00
      -11  1    4    4    0    0 +4.3185084870e+01 -3.7077948554e+00 +2.6102186653e+02 2.6459613396e+02 0.0000000000e+00 0.0000e+00 1.0000e+00
       13  1    4    4    0    0 -7.0533909100e+00 -4.9840500738e+00 +2.1814727339e+01 2.3462169706e+01 0.0000000000e+00 0.0000e+00 1.0000e+00
      -11  1    5    5    0    0 -7.9361574833e+00 +2.1981101866e+01 +4.1437819303e+01 4.7573567277e+01 0.0000000000e+00 0.0000e+00 1.0000e+00
       13  1    5    5    0    0 -2.8195536477e+01 -1.3289256937e+01 +4.9554715966e+01 5.8542826218e+01 0.0000000000e+00 0.0000e+00 1.0000e+00
<mgrwt>
<rscale>  0 0.12500190E+03</rscale>
<asrwt>0</asrwt>
<pdfrwt beam="1">  1       21 0.96000430E-01 0.12500190E+03</pdfrwt>
<pdfrwt beam="2">  1       21 0.25431973E-02 0.12500190E+03</pdfrwt>
<totfact> 0.75705555E+05</totfact>
</mgrwt>
</event>
<event>
 9      1 +9.5563000e+06 1.25003800e+02 7.81860800e-03 1.23506300e-01
       21 -1    0    0  502  501 +0.0000000000e+00 +0.0000000000e+00 +5.5960278766e+01 5.5960278766e+01 0.0000000000e+00 0.0000e+00 1.0000e+00
       21 -1    0    0  501  502 -0.0000000000e+00 -0.0000000000e+00 -6.9808271306e+01 6.9808271306e+01 0.0000000000e+00 0.0000e+00 1.0000e+00
       25  2    1    2    0    0 +0.0000000000e+00 +0.0000000000e+00 -1.3847992541e+01 1.2576855007e+02 1.2500384510e+02 0.0000e+00 0.0000e+00
  9000006  2    3    3    0    0 +4.4945340568e+01 +5.9075574518e+00 +9.0320068762e+00 6.1127408035e+01 3.9999999888e+01 0.0000e+00 0.0000e+00
  9000006  2    3    3    0    0 -4.4945340568e+01 -5.9075574518e+00 -2.2879999417e+01 6.4641142037e+01 3.9999999958e+01 0.0000e+00 0.0000e+00
      -11  1    5    5    0    0 -3.3464353278e+01 +1.4863531433e+01 -1.1997710851e+01 3.8532227715e+01 0.0000000000e+00 0.0000e+00 1.0000e+00
       13  1    4    4    0    0 -3.4690430114e+00 -7.0621260574e+00 +7.6690639061e+00 1.0987375713e+01 0.0000000000e+00 0.0000e+00 1.0000e+00
      -11  1    4    4    0    0 +4.8414383580e+01 +1.2969683509e+01 +1.3629429702e+00 5.0140032322e+01 0.0000000000e+00 0.0000e+00 1.0000e+00
       13  1    5    5    0    0 -1.1480987290e+01 -2.0771088885e+01 -1.0882288567e+01 2.6108914322e+01 0.0000000000e+00 0.0000e+00 1.0000e+00
<mgrwt>
<rscale>  0 0.12500385E+03</rscale>
<asrwt>0</asrwt>
<pdfrwt beam="1">  1       21 0.13990070E-01 0.12500385E+03</pdfrwt>
<pdfrwt beam="2">  1       21 0.17452068E-01 0.12500385E+03</pdfrwt>
<totfact> 0.13201474E+06</totfact>
</mgrwt>
</event>
<event>
 9      1 +9.5563000e+06 1.25005400e+02 7.81860800e-03 1.23506100e-01
       21 -1    0    0  502  501 +0.0000000000e+00 +0.0000000000e+00 +2.2132618831e+01 2.2132618831e+01 0.0000000000e+00 0.0000e+00 -1.0000e+00
       21 -1    0    0  501  502 -0.0000000000e+00 -0.0000000000e+00 -1.7650823211e+02 1.7650823211e+02 0.0000000000e+00 0.0000e+00 -1.0000e+00
       25  2    1    2    0    0 -1.7763568394e-15 +0.0000000000e+00 -1.5437561328e+02 1.9864085094e+02 1.2500543063e+02 0.0000e+00 0.0000e+00
  9000006  2    3    3    0    0 -9.9742241967e+00 +2.2337651716e+01 -1.1512727765e+01 4.8280417681e+01 3.9999999979e+01 0.0000e+00 0.0000e+00
  9000006  2    3    3    0    0 +9.9742241967e+00 -2.2337651716e+01 -1.4286288551e+02 1.5036043326e+02 4.0000000002e+01 0.0000e+00 0.0000e+00
      -11  1    5    5    0    0 +2.1570110397e+01 -2.4260790627e+01 -7.8746401178e+01 8.5175415015e+01 0.0000000000e+00 0.0000e+00 1.0000e+00
       13  1    4    4    0    0 +6.0281598411e+00 +5.0173231053e+00 +1.2415542127e+01 1.4685296337e+01 0.0000000000e+00 0.0000e+00 1.0000e+00
      -11  1    4    4    0    0 -1.6002384038e+01 +1.7320328611e+01 -2.3928269892e+01 3.3595121344e+01 0.0000000000e+00 0.0000e+00 1.0000e+00
       13  1    5    5    0    0 -1.1595886201e+01 +1.9231389108e+00 -6.4116484334e+01 6.5185018244e+01 0.0000000000e+00 0.0000e+00 1.0000e+00
<mgrwt>
<rscale>  0 0.12500543E+03</rscale>
<asrwt>0</asrwt>
<pdfrwt beam="1">  1       21 0.55331548E-02 0.12500543E+03</pdfrwt>
<pdfrwt beam="2">  1       21 0.44127057E-01 0.12500543E+03</pdfrwt>
<totfact> 0.11174847E+06</totfact>
</mgrwt>
</event>
<event>
 9      1 +9.5563000e+06 1.25007100e+02 7.81860800e-03 1.23505800e-01
       21 -1    0    0  502  501 +0.0000000000e+00 +0.0000000000e+00 +1.3759628574e+01 1.3759628574e+01 0.0000000000e+00 0.0000e+00 -1.0000e+00
       21 -1    0    0  501  502 -0.0000000000e+00 -0.0000000000e+00 -2.8392415652e+02 2.8392415652e+02 0.0000000000e+00 0.0000e+00 -1.0000e+00
       25  2    1    2    0    0 +8.8817841970e-16 +3.5527136788e-15 -2.7016452795e+02 2.9768378510e+02 1.2500705479e+02 0.0000e+00 0.0000e+00
  9000006  2    3    3    0    0 +6.4447445774e+00 +2.6967874513e+01 -2.2846858911e+02 2.3359515666e+02 4.0000000191e+01 0.0000e+00 0.0000e+00
  9000006  2    3    3    0    0 -6.4447445774e+00 -2.6967874513e+01 -4.1695938833e+01 6.4088628434e+01 3.9999999888e+01 0.0000e+00 0.0000e+00
      -11  1    4    4    0    0 +1.5495258566e+01 +1.2845688728e+01 -4.4226689373e+01 4.8591303850e+01 0.0000000000e+00 0.0000e+00 1.0000e+00
       13  1    4    4    0    0 -9.0505139887e+00 +1.4122185785e+01 -1.8424189974e+02 1.8500385281e+02 0.0000000000e+00 0.0000e+00 1.0000e+00
      -11  1    5    5    0    0 +5.6674141425e+00 -2.9528437082e+01 -1.2849652331e+01 3.2698038850e+01 0.0000000000e+00 0.0000e+00 1.0000e+00
       13  1    5    5    0    0 -1.2112158720e+01 +2.5605625698e+00 -2.8846286501e+01 3.1390589584e+01 0.0000000000e+00 0.0000e+00 1.0000e+00
<mgrwt>
<rscale>  0 0.12500705E+03</rscale>
<asrwt>0</asrwt>
<pdfrwt beam="1">  1       21 0.34399071E-02 0.12500705E+03</pdfrwt>
<pdfrwt beam="2">  1       21 0.70981040E-01 0.12500705E+03</pdfrwt>
<totfact> 0.90973621E+05</totfact>
</mgrwt>
</event>
<event>
 9      1 +9.5563000e+06 1.24994200e+02 7.81860800e-03 1.23507800e-01
       21 -1    0    0  502  501 +0.0000000000e+00 +0.0000000000e+00 +2.1671856129e+02 2.1671856129e+02 0.0000000000e+00 0.0000e+00 1.0000e+00
       21 -1    0    0  501  502 -0.0000000000e+00 -0.0000000000e+00 -1.8022851154e+01 1.8022851154e+01 0.0000000000e+00 0.0000e+00 1.0000e+00
       25  2    1    2    0    0 +1.4210854715e-14 -8.8817841970e-16 +1.9869571014e+02 2.3474141245e+02 1.2499418182e+02 0.0000e+00 0.0000e+00
  9000006  2    3    3    0    0 -4.6554932238e+01 +5.4743416574e-01 +7.7268155937e+01 9.8681453848e+01 4.0000000145e+01 0.0000e+00 0.0000e+00
  9000006  2    3    3    0    0 +4.6554932238e+01 -5.4743416574e-01 +1.2142755420e+02 1.3605995860e+02 4.0000000186e+01 0.0000e+00 0.0000e+00
      -11  1    5    5    0    0 +1.7758748616e+00 -1.4078982370e+01 +3.5362958443e+01 3.8103940819e+01 0.0000000000e+00 0.0000e+00 1.0000e+00
       13  1    4    4    0    0 -1.8710803701e+00 -6.0597064181e+00 +3.8906545994e+01 3.9420049528e+01 0.0000000000e+00 0.0000e+00 1.0000e+00
      -11  1    4    4    0    0 -4.4683851868e+01 +6.6071405838e+00 +3.8361609944e+01 5.9261404320e+01 0.0000000000e+00 0.0000e+00 1.0000e+00
       13  1    5    5    0    0 +4.4779057377e+01 +1.3531548204e+01 +8.6064595758e+01 9.7956017780e+01 0.0000000000e+00 0.0000e+00 1.0000e+00
<mgrwt>
<rscale>  0 0.12499418E+03</rscale>
<asrwt>0</asrwt>
<pdfrwt beam="1">  1       21 0.54179632E-01 0.12499418E+03</pdfrwt>
<pdfrwt beam="2">  1       21 0.45057135E-02 0.12499418E+03</pdfrwt>
<totfact> 0.10346809E+06</totfact>
</mgrwt>
</event>
<event>
 9      1 +9.5563000e+06 1.25001900e+02 7.81860800e-03 1.23506600e-01
       21 -1    0    0  502  501 +0.0000000000e+00 +0.0000000000e+00 +7.6943204531e+00 7.6943204531e+00 0.0000000000e+00 0.0000e+00 -1.0000e+00
       21 -1    0    0  501  502 -0.0000000000e+00 -0.0000000000e+00 -5.0769543187e+02 5.0769543187e+02 0.0000000000e+00 0.0000e+00 -1.0000e+00
       25  2    1    2    0    0 +0.0000000000e+00 -3.5527136788e-15 -5.0000111142e+02 5.1538975232e+02 1.2500194151e+02 0.0000e+00 0.0000e+00
  9000006  2    3    3    0    0 +4.2507470698e+01 -1.9245727675e+01 -2.9684546966e+02 3.0314108251e+02 3.9999999355e+01 0.0000e+00 0.0000e+00
  9000006  2    3    3    0    0 -4.2507470698e+01 +1.9245727675e+01 -2.0315564176e+02 2.1224866982e+02 3.9999999516e+01 0.0000e+00 0.0000e+00
      -11  1    5    5    0    0 -1.3645128956e+01 -9.9882326785e+00 -3.1569497835e+01 3.5813231212e+01 0.0000000000e+00 0.0000e+00 1.0000e+00
       13  1    4    4    0    0 +3.5941930853e+01 -4.4007855114e+00 -1.1484686191e+02 1.2042006061e+02 0.0000000000e+00 0.0000e+00 1.0000e+00
      -11  1    4    4    0    0 +6.5655398445e+00 -1.4844942163e+01 -1.8199860775e+02 1.8272102190e+02 0.0000000000e+00 0.0000e+00 1.0000e+00
       13  1    5    5    0    0 -2.8862341741e+01 +2.9233960353e+01 -1.7158614392e+02 1.7643543860e+02 0.0000000000e+00 0.0000e+00 1.0000e+00
<mgrwt>
<rscale>  0 0.12500194E+03</rscale>
<asrwt>0</asrwt>
<pdfrwt beam="1">  1       21 0.19235802E-02 0.12500194E+03</pdfrwt>
<pdfrwt beam="2">  1       21 0.12692385E+00 0.12500194E+03</pdfrwt>
<totfact> 0.61015838E+05</totfact>
</mgrwt>
</event>
<event>
 9      1 +9.5563000e+06 1.24996400e+02 7.81860800e-03 1.23507500e-01
       21 -1    0    0  502  501 +0.0000000000e+00 +0.0000000000e+00 +1.2772155437e+01 1.2772155437e+01 0.0000000000e+00 0.0000e+00 -1.0000e+00
       21 -1    0    0  501  502 -0.0000000000e+00 -0.0000000000e+00 -3.0582371937e+02 3.0582371937e+02 0.0000000000e+00 0.0000e+00 -1.0000e+00
       25  2    1    2    0    0 +0.0000000000e+00 -1.7763568394e-15 -2.9305156394e+02 3.1859587481e+02 1.2499644923e+02 0.0000e+00 0.0000e+00
  9000006  2    3    3    0    0 -1.2379415729e+01 -1.1442966950e+01 -3.1917631345e+01 5.3878814246e+01 4.0000000094e+01 0.0000e+00 0.0000e+00
  9000006  2    3    3    0    0 +1.2379415729e+01 +1.1442966950e+01 -2.6113393259e+02 2.6471706056e+02 3.9999999704e+01 0.0000e+00 0.0000e+00
      -11  1    5    5    0    0 +1.2656673666e+01 -1.3098276028e+01 -1.3439678191e+02 1.3562540769e+02 0.0000000000e+00 0.0000e+00 1.0000e+00
       13  1    4    4    0    0 -1.0309106196e+01 -1.7537519714e+01 -3.9197165175e+01 4.4161748448e+01 0.0000000000e+00 0.0000e+00 1.0000e+00
      -11  1    4    4    0    0 -2.0703095335e+00 +6.0945527631e+00 +7.2795338298e+00 9.7170657981e+00 0.0000000000e+00 0.0000e+00 1.0000e+00
       13  1    5    5    0    0 -2.7725793666e-01 +2.4541242978e+01 -1.2673715068e+02 1.2909165287e+02 0.0000000000e+00 0.0000e+00 1.0000e+00
<mgrwt>
<rscale>  0 0.12499645E+03</rscale>
<asrwt>0</asrwt>
<pdfrwt beam="1">  1       21 0.31930390E-02 0.12499645E+03</pdfrwt>
<pdfrwt beam="2">  1       21 0.76455928E-01 0.12499645E+03</pdfrwt>
<totfact> 0.87339969E+05</totfact>
</mgrwt>
</event>
<event>
 9      1 +9.5563000e+06 1.25000000e+02 7.81860800e-03 1.23506900e-01
       21 -1    0    0  502  501 +0.0000000000e+00 +0.0000000000e+00 +1.4683031866e+01 1.4683031866e+01 0.0000000000e+00 0.0000e+00 -1.0000e+00
       21 -1    0    0  501  502 -0.0000000000e+00 -0.0000000000e+00 -2.6603818771e+02 2.6603818771e+02 0.0000000000e+00 0.0000e+00 -1.0000e+00
       25  2    1    2    0    0 +3.5527136788e-15 +1.7763568394e-15 -2.5135515584e+02 2.8072121957e+02 1.2499995500e+02 0.0000e+00 0.0000e+00
  9000006  2    3    3    0    0 +2.0140027361e+01 +8.9090744670e+00 -2.2151844813e+02 2.2617562919e+02 4.0000000872e+01 0.0000e+00 0.0000e+00
  9000006  2    3    3    0    0 -2.0140027361e+01 -8.9090744670e+00 -2.9836707716e+01 5.4545590384e+01 3.9999999913e+01 0.0000e+00 0.0000e+00
      -11  1    4    4    0    0 -5.8250447688e+00 +1.6752336679e+01 -1.0903567947e+02 1.1046877988e+02 0.0000000000e+00 0.0000e+00 1.0000e+00
       13  1    4    4    0    0 +2.5965072130e+01 -7.8432622122e+00 -1.1248276866e+02 1.1570684931e+02 0.0000000000e+00 0.0000e+00 1.0000e+00
      -11  1    5    5    0    0 -6.3252675140e+00 +1.5922430914e+01 -9.3812685311e+00 1.9533074888e+01 0.0000000000e+00 0.0000e+00 1.0000e+00
       13  1    5    5    0    0 -1.3814759847e+01 -2.4831505381e+01 -2.0455439185e+01 3.5012515496e+01 0.0000000000e+00 0.0000e+00 1.0000e+00
<mgrwt>
<rscale>  0 0.12499996E+03</rscale>
<asrwt>0</asrwt>
<pdfrwt beam="1">  1       21 0.36707579E-02 0.12499996E+03</pdfrwt>
<pdfrwt beam="2">  1       21 0.66509547E-01 0.12499996E+03</pdfrwt>
<totfact> 0.94123742E+05</totfact>
</mgrwt>
</event>
<event>
 9      1 +9.5563000e+06 1.24998300e+02 7.81860800e-03 1.23507200e-01
       21 -1    0    0  502  501 +0.0000000000e+00 +0.0000000000e+00 +4.8061290790e+02 4.8061290790e+02 0.0000000000e+00 0.0000e+00 1.0000e+00
       21 -1    0    0  501  502 -0.0000000000e+00 -0.0000000000e+00 -8.1274241109e+00 8.1274241109e+00 0.0000000000e+00 0.0000e+00 1.0000e+00
       25  2    1    2    0    0 -7.1054273576e-15 +0.0000000000e+00 +4.7248548379e+02 4.8874033201e+02 1.2499831896e+02 0.0000e+00 0.0000e+00
  9000006  2    3    3    0    0 +4.6400985174e+01 +4.5921254668e+00 +2.8116594089e+02 2.8779927962e+02 3.9999999933e+01 0.0000e+00 0.0000e+00
  9000006  2    3    3    0    0 -4.6400985174e+01 -4.5921254668e+00 +1.9131954290e+02 2.0094105239e+02 3.9999999967e+01 0.0000e+00 0.0000e+00
      -11  1    4    4    0    0 +4.7418210828e+01 +7.0122561151e+00 +1.7070735758e+02 1.7730950450e+02 0.0000000000e+00 0.0000e+00 1.0000e+00
       13  1    4    4    0    0 -1.0172256536e+00 -2.4201306484e+00 +1.1045858331e+02 1.1048977513e+02 0.0000000000e+00 0.0000e+00 1.0000e+00
      -11  1    5    5    0    0 -5.3226470282e+01 -3.7049825534e+00 +1.7951633895e+02 1.8727760140e+02 0.0000000000e+00 0.0000e+00 1.0000e+00
       13  1    5    5    0    0 +6.8254851076e+00 -8.8714291339e-01 +1.1803203948e+01 1.3663450989e+01 0.0000000000e+00 0.0000e+00 1.0000e+00
<mgrwt>
<rscale>  0 0.12499832E+03</rscale>
<asrwt>0</asrwt>
<pdfrwt beam="1">  1       21 0.12015313E+00 0.12499832E+03</pdfrwt>
<pdfrwt beam="2">  1       21 0.20318576E-02 0.12499832E+03</pdfrwt>
<totfact> 0.63919467E+05</totfact>
</mgrwt>
</event>
<event>
 9      1 +9.5563000e+06 1.24999900e+02 7.81860800e-03 1.23506900e-01
       21 -1    0    0  502  501 +0.0000000000e+00 +0.0000000000e+00 +1.1437385272e+02 1.1437385272e+02 0.0000000000e+00 0.0000e+00 -1.0000e+00
       21 -1    0    0  501  502 -0.0000000000e+00 -0.0000000000e+00 -3.4153311921e+01 3.4153311921e+01 0.0000000000e+00 0.0000e+00 -1.0000e+00
       25  2    1    2    0    0 +0.0000000000e+00 +0.0000000000e+00 +8.0220540795e+01 1.4852716464e+02 1.2499993388e+02 0.0000e+00 0.0000e+00
  9000006  2    3    3    0    0 -1.0465335254e+01 +1.0166497908e+01 -1.4254627987e+01 4.4900727686e+01 4.0000000075e+01 0.0000e+00 0.0000e+00
  9000006  2    3    3    0    0 +1.0465335254e+01 -1.0166497908e+01 +9.4475168782e+01 1.0362643695e+02 3.9999999963e+01 0.0000e+00 0.0000e+00
      -11  1    5    5    0    0 +1.7628244683e+01 -1.7077396029e+01 +3.1821350860e+01 4.0186948581e+01 0.0000000000e+00 0.0000e+00 1.0000e+00
       13  1    4    4    0    0 -1.8968216510e+00 +2.4527648321e+01 -1.3722161785e+01 2.8169153140e+01 0.0000000000e+00 0.0000e+00 1.0000e+00
      -11  1    4    4    0    0 -8.5685136031e+00 -1.4361150413e+01 -5.3246620234e-01 1.6731574547e+01 0.0000000000e+00 0.0000e+00 1.0000e+00
       13  1    5    5    0    0 -7.1629094294e+00 +6.9108981203e+00 +6.2653817923e+01 6.3439488370e+01 0.0000000000e+00 0.0000e+00 1.0000e+00
<mgrwt>
<rscale>  0 0.12499993E+03</rscale>
<asrwt>0</asrwt>
<pdfrwt beam="1">  1       21 0.28593462E-01 0.12499993E+03</pdfrwt>
<pdfrwt beam="2">  1       21 0.85383282E-02 0.12499993E+03</pdfrwt>
<totfact> 0.12512222E+06</totfact>
</mgrwt>
</event>
<event>
 9      1 +9.5563000e+06 1.25004000e+02 7.81860800e-03 1.23506300e-01
       21 -1    0    0  502  501 +0.0000000000e+00 +0.0000000000e+00 +8.1976683402e+01 8.1976683402e+01 0.0000000000e+00 0.0000e+00 1.0000e+00
       21 -1    0    0  501  502 -0.0000000000e+00 -0.0000000000e+00 -4.7653784154e+01 4.7653784154e+01 0.0000000000e+00 0.0000e+00 1.0000e+00
       25  2    1    2    0    0 -3.5527136788e-15 +0.0000000000e+00 +3.4322899248e+01 1.2963046756e+02 1.2500398676e+02 0.0000e+00 0.0000e+00
  9000006  2    3    3    0    0 -1.5167062290e+00 +3.8748755255e+01 +4.6542594320e+01 7.2594624608e+01 4.0000000055e+01 0.0000e+00 0.0000e+00
  9000006  2    3    3    0    0 +1.5167062290e+00 -3.8748755255e+01 -1.2219695072e+01 5.7035842948e+01 4.0000000020e+01 0.0000e+00 0.0000e+00
      -11  1    5    5    0    0 +1.7478890045e+01 -9.5261198532e+00 +3.5036812098e+00 2.0212232402e+01 0.0000000000e+00 0.0000e+00 1.0000e+00
       13  1    4    4    0    0 -2.0753880325e+01 +1.9799709111e+01 +2.5066461897e+01 3.8093037966e+01 0.0000000000e+00 0.0000e+00 1.0000e+00
      -11  1    4    4    0    0 +1.9237174096e+01 +1.8949046143e+01 +2.1476132423e+01 3.4501586642e+01 0.0000000000e+00 0.0000e+00 1.0000e+00
       13  1    5    5    0    0 -1.5962183816e+01 -2.9222635401e+01 -1.5723376282e+01 3.6823610546e+01 0.0000000000e+00 0.0000e+00 1.0000e+00
<mgrwt>
<rscale>  0 0.12500399E+03</rscale>
<asrwt>0</asrwt>
<pdfrwt beam="1">  1       21 0.20494171E-01 0.12500399E+03</pdfrwt>
<pdfrwt beam="2">  1       21 0.11913446E-01 0.12500399E+03</pdfrwt>
<totfact> 0.13079889E+06</totfact>
</mgrwt>
</event>
<event>
 9      1 +9.5563000e+06 1.25000700e+02 7.81860800e-03 1.23506800e-01
       21 -1    0    0  502  501 +0.0000000000e+00 +0.0000000000e+00 +1.3345396255e+01 1.3345396255e+01 0.0000000000e+00 0.0000e+00 1.0000e+00
       21 -1    0    0  501  502 -0.0000000000e+00 -0.0000000000e+00 -2.9270699133e+02 2.9270699133e+02 0.0000000000e+00 0.0000e+00 1.0000e+00
       25  2    1    2    0    0 +0.0000000000e+00 -3.5527136788e-15 -2.7936159507e+02 3.0605238758e+02 1.2500065257e+02 0.0000e+00 0.0000e+00
  9000006  2    3    3    0    0 -2.4971128329e+01 -2.9745005631e+01 -2.0884418873e+02 2.1615785382e+02 3.9999999885e+01 0.0000e+00 0.0000e+00
  9000006  2    3    3    0    0 +2.4971128329e+01 +2.9745005631e+01 -7.0517406342e+01 8.9894533764e+01 3.9999999917e+01 0.0000e+00 0.0000e+00
      -11  1    4    4    0    0 +1.0138717261e+01 -2.0118901203e+00 -2.7575943317e+01 2.9449515095e+01 0.0000000000e+00 0.0000e+00 1.0000e+00
       13  1    4    4    0    0 -3.5109845590e+01 -2.7733115511e+01 -1.8126824542e+02 1.8670833872e+02 0.0000000000e+00 0.0000e+00 1.0000e+00
      -11  1    5    5    0    0 +3.4232509938e+01 +2.4783869945e+01 -4.2343606830e+01 5.9825462685e+01 0.0000000000e+00 0.0000e+00 1.0000e+00
       13  1    5    5    0    0 -9.2613816089e+00 +4.9611356862e+00 -2.8173799512e+01 3.0069071079e+01 0.0000000000e+00 0.0000e+00 1.0000e+00
<mgrwt>
<rscale>  0 0.12500065E+03</rscale>
<asrwt>0</asrwt>
<pdfrwt beam="1">  1       21 0.33363490E-02 0.12500065E+03</pdfrwt>
<pdfrwt beam="2">  1       21 0.73176748E-01 0.12500065E+03</pdfrwt>
<totfact> 0.89498649E+05</totfact>
</mgrwt>
</event>
<event>
 9      1 +9.5563000e+06 1.25015600e+02 7.81860800e-03 1.23504500e-01
       21 -1    0    0  502  501 +0.0000000000e+00 +0.0000000000e+00 +9.1763158245e+01 9.1763158245e+01 0.0000000000e+00 0.0000e+00 -1.0000e+00
       21 -1    0    0  501  502 -0.0000000000e+00 -0.0000000000e+00 -4.2579422418e+01 4.2579422418e+01 0.0000000000e+00 0.0000e+00 -1.0000e+00
       25  2    1    2    0    0 -7.1054273576e-15 +3.5527136788e-15 +4.9183735827e+01 1.3434258066e+02 1.2501555547e+02 0.0000e+00 0.0000e+00
  9000006  2    3    3    0    0 +3.5514909833e+01 -1.9623759954e+01 -3.0324597106e+00 5.7057835415e+01 3.9999999939e+01 0.0000e+00 0.0000e+00
  9000006  2    3    3    0    0 -3.5514909833e+01 +1.9623759954e+01 +5.2216195537e+01 7.7284745248e+01 3.9999999955e+01 0.0000e+00 0.0000e+00
      -11  1    4    4    0    0 -3.2712041880e+00 +5.3677448706e+00 -8.5246963117e+00 1.0591690566e+01 0.0000000000e+00 0.0000e+00 1.0000e+00
       13  1    4    4    0    0 +3.8786114021e+01 -2.4991504824e+01 +5.4922366011e+00 4.6466144849e+01 0.0000000000e+00 0.0000e+00 1.0000e+00
      -11  1    5    5    0    0 +2.1389535163e+00 -5.7509948920e+00 +2.1764839169e+01 2.2613210485e+01 0.0000000000e+00 0.0000e+00 1.0000e+00
       13  1    5    5    0    0 -3.7653863349e+01 +2.5374754846e+01 +3.0451356369e+01 5.4671534763e+01 0.0000000000e+00 0.0000e+00 1.0000e+00
<mgrwt>
<rscale>  0 0.12501556E+03</rscale>
<asrwt>0</asrwt>
<pdfrwt beam="1">  1       21 0.22940789E-01 0.12501556E+03</pdfrwt>
<pdfrwt beam="2">  1       21 0.10644856E-01 0.12501556E+03</pdfrwt>
<totfact> 0.12929738E+06</totfact>
</mgrwt>
</event>
<event>
 9      1 +9.5563000e+06 1.24998300e+02 7.81860800e-03 1.23507200e-01
       21 -1    0    0  502  501 +0.0000000000e+00 +0.0000000000e+00 +1.4351193830e+01 1.4351193830e+01 0.0000000000e+00 0.0000e+00 1.0000e+00
       21 -1    0    0  501  502 -0.0000000000e+00 -0.0000000000e+00 -2.7218260404e+02 2.7218260404e+02 0.0000000000e+00 0.0000e+00 1.0000e+00
       25  2    1    2    0    0 -3.5527136788e-15 -1.7763568394e-15 -2.5783141021e+02 2.8653379787e+02 1.2499832491e+02 0.0000e+00 0.0000e+00
  9000006  2    3    3    0    0 +1.3328572742e+01 +7.5860558307e+00 -2.4598468784e+01 4.9399228436e+01 4.0000000114e+01 0.0000e+00 0.0000e+00
  9000006  2    3    3    0    0 -1.3328572742e+01 -7.5860558307e+00 -2.3323294143e+02 2.3713456943e+02 3.9999999508e+01 0.0000e+00 0.0000e+00
      -11  1    5    5    0    0 +3.8113934572e+00 +6.1363593447e+00 -1.7081166719e+02 1.7096434503e+02 0.0000000000e+00 0.0000e+00 1.0000e+00
       13  1    4    4    0    0 -3.5468467277e+00 +1.6505576115e+01 +1.6296079090e+00 1.6960830951e+01 0.0000000000e+00 0.0000e+00 1.0000e+00
      -11  1    4    4    0    0 +1.6875419469e+01 -8.9195202843e+00 -2.6228076693e+01 3.2438397485e+01 0.0000000000e+00 0.0000e+00 1.0000e+00
       13  1    5    5    0    0 -1.7139966199e+01 -1.3722415175e+01 -6.2421274240e+01 6.6170224401e+01 0.0000000000e+00 0.0000e+00 1.0000e+00
<mgrwt>
<rscale>  0 0.12499832E+03</rscale>
<asrwt>0</asrwt>
<pdfrwt beam="1">  1       21 0.35877984E-02 0.12499832E+03</pdfrwt>
<pdfrwt beam="2">  1       21 0.68045652E-01 0.12499832E+03</pdfrwt>
<totfact> 0.93036413E+05</totfact>
</mgrwt>
</event>
<event>
 9      1 +9.5563000e+06 1.25001700e+02 7.81860800e-03 1.23506700e-01
       21 -1    0    0  502  501 +0.0000000000e+00 +0.0000000000e+00 +5.9538312692e+01 5.9538312692e+01 0.0000000000e+00 0.0000e+00 -1.0000e+00
       21 -1    0    0  501  502 -0.0000000000e+00 -0.0000000000e+00 -6.5610842924e+01 6.5610842924e+01 0.0000000000e+00 0.0000e+00 -1.0000e+00
       25  2    1    2    0    0 -7.1054273576e-15 -1.7763568394e-15 -6.0725302314e+00 1.2514915562e+02 1.2500174210e+02 0.0000e+00 0.0000e+00
  9000006  2    3    3    0    0 -4.2097179263e+01 +8.4467154459e+00 -2.4575338016e+01 6.3619704124e+01 4.0000000130e+01 0.0000e+00 0.0000e+00
  9000006  2    3    3    0    0 +4.2097179263e+01 -8.4467154459e+00 +1.8502807785e+01 6.1529451492e+01 4.0000000016e+01 0.0000e+00 0.0000e+00
      -11  1    5    5    0    0 +4.6992393138e+01 -1.5172082244e+01 +1.9621219585e+01 5.3136327973e+01 0.0000000000e+00 0.0000e+00 1.0000e+00
       13  1    4    4    0    0 -9.6258420090e+00 -5.3190852491e+00 +9.5341346911e+00 1.4555041277e+01 0.0000000000e+00 0.0000e+00 1.0000e+00
      -11  1    4    4    0    0 -3.2471337254e+01 +1.3765800695e+01 -3.4109472708e+01 4.9064662847e+01 0.0000000000e+00 0.0000e+00 1.0000e+00
       13  1    5    5    0    0 -4.8952138750e+00 +6.7253667978e+00 -1.1184118004e+00 8.3931235188e+00 0.0000000000e+00 0.0000e+00 1.0000e+00
<mgrwt>
<rscale>  0 0.12500174E+03</rscale>
<asrwt>0</asrwt>
<pdfrwt beam="1">  1       21 0.14884578E-01 0.12500174E+03</pdfrwt>
<pdfrwt beam="2">  1       21 0.16402711E-01 0.12500174E+03</pdfrwt>
<totfact> 0.13221442E+06</totfact>
</mgrwt>
</event>
<event>
 9      1 +9.5563000e+06 1.25001000e+02 7.81860800e-03 1.23506800e-01
       21 -1    0    0  502  501 +0.0000000000e+00 +0.0000000000e+00 +7.3954583808e+02 7.3954583808e+02 0.0000000000e+00 0.0000e+00 -1.0000e+00
       21 -1    0    0  501  502 -0.0000000000e+00 -0.0000000000e+00 -5.2820389439e+00 5.2820389439e+00 0.0000000000e+00 0.0000e+00 -1.0000e+00
       25  2    1    2    0    0 +1.7763568394e-15 -1.7763568394e-15 +7.3426379914e+02 7.4482787703e+02 1.2500095868e+02 0.0000e+00 0.0000e+00
  9000006  2    3    3    0    0 -7.0708851391e+00 +8.7297449235e+00 +6.4534732342e+02 6.4668336433e+02 4.0000000000e+01 0.0000e+00 0.0000e+00
  9000006  2    3    3    0    0 +7.0708851391e+00 -8.7297449235e+00 +8.8916475721e+01 9.8144512693e+01 3.9999998176e+01 0.0000e+00 0.0000e+00
      -11  1    4    4    0    0 +1.4960321938e+01 +6.5728775782e+00 +4.0178683846e+02 4.0211898427e+02 0.0000000000e+00 0.0000e+00 1.0000e+00
       13  1    4    4    0    0 -2.2031207077e+01 +2.1568673453e+00 +2.4356048496e+02 2.4456438006e+02 0.0000000000e+00 0.0000e+00 1.0000e+00
      -11  1    5    5    0    0 -4.7251281628e+00 -2.2722877254e+01 +4.7650514314e+01 5.3002146195e+01 0.0000000000e+00 0.0000e+00 1.0000e+00
       13  1    5    5    0    0 +1.1796013302e+01 +1.3993132330e+01 +4.1265961407e+01 4.5142366499e+01 0.0000000000e+00 0.0000e+00 1.0000e+00
<mgrwt>
<rscale>  0 0.12500096E+03</rscale>
<asrwt>0</asrwt>
<pdfrwt beam="1">  1       21 0.18488611E+00 0.12500096E+03</pdfrwt>
<pdfrwt beam="2">  1       21 0.13205123E-02 0.12500096E+03</pdfrwt>
<totfact> 0.41655103E+05</totfact>
</mgrwt>
</event>
<event>
 9      1 +9.5563000e+06 1.24999400e+02 7.81860800e-03 1.23507000e-01
       21 -1    0    0  502  501 +0.0000000000e+00 +0.0000000000e+00 +4.3333855746e+00 4.3333855746e+00 0.0000000000e+00 0.0000e+00 -1.0000e+00
       21 -1    0    0  501  502 -0.0000000000e+00 -0.0000000000e+00 -9.0142282306e+02 9.0142282306e+02 0.0000000000e+00 0.0000e+00 -1.0000e+00
       25  2    1    2    0    0 +8.8817841970e-16 -3.5527136788e-15 -8.9708943748e+02 9.0575620863e+02 1.2499940253e+02 0.0000e+00 0.0000e+00
  9000006  2    3    3    0    0 -4.0731341149e+00 +2.4955797949e+01 -7.4437940120e+02 7.4588207864e+02 4.0000000304e+01 0.0000e+00 0.0000e+00
  9000006  2    3    3    0    0 +4.0731341149e+00 -2.4955797949e+01 -1.5271003628e+02 1.5987412999e+02 3.9999999852e+01 0.0000e+00 0.0000e+00
      -11  1    4    4    0    0 -3.2535226923e+00 +2.8540140374e+01 -2.7647257995e+02 2.7796081106e+02 0.0000000000e+00 0.0000e+00 1.0000e+00
       13  1    4    4    0    0 -8.1961142262e-01 -3.5843424252e+00 -4.6790682125e+02 4.6792126758e+02 0.0000000000e+00 0.0000e+00 1.0000e+00
      -11  1    5    5    0    0 -1.3632546196e+01 +3.0753425104e+00 -5.2114802253e+01 5.3956062321e+01 0.0000000000e+00 0.0000e+00 1.0000e+00
       13  1    5    5    0    0 +1.7705680311e+01 -2.8031140459e+01 -1.0059523403e+02 1.0591806767e+02 0.0000000000e+00 0.0000e+00 1.0000e+00
<mgrwt>
<rscale>  0 0.12499940E+03</rscale>
<asrwt>0</asrwt>
<pdfrwt beam="1">  1       21 0.10833466E-02 0.12499940E+03</pdfrwt>
<pdfrwt beam="2">  1       21 0.22535567E+00 0.12499940E+03</pdfrwt>
<totfact> 0.31956446E+05</totfact>
</mgrwt>
</event>
<event>
 9      1 +9.5563000e+06 1.24995300e+02 7.81860800e-03 1.23507700e-01
       21 -1    0    0  502  501 +0.0000000000e+00 +0.0000000000e+00 +1.8019153440e+02 1.8019153440e+02 0.0000000000e+00 0.0000e+00 1.0000e+00
       21 -1    0    0  501  502 -0.0000000000e+00 -0.0000000000e+00 -2.1676674522e+01 2.1676674522e+01 0.0000000000e+00 0.0000e+00 1.0000e+00
       25  2    1    2    0    0 -7.1054273576e-15 -3.5527136788e-15 +1.5851485988e+02 2.0186820892e+02 1.2499525179e+02 0.0000e+00 0.0000e+00
  9000006  2    3    3    0    0 +2.4362496184e+01 +2.3146743003e+01 +2.3858915309e+01 5.7433011213e+01 4.0000000066e+01 0.0000e+00 0.0000e+00
  9000006  2    3    3    0    0 -2.4362496184e+01 -2.3146743003e+01 +1.3465594457e+02 1.4443519771e+02 3.9999999967e+01 0.0000e+00 0.0000e+00
      -11  1    4    4    0    0 +1.0875093669e+01 +3.1622225494e+01 +2.4557131010e+01 4.1488377782e+01 0.0000000000e+00 0.0000e+00 1.0000e+00
       13  1    4    4    0    0 +1.3487402515e+01 -8.4754824915e+00 -6.9821570155e-01 1.5944633431e+01 0.0000000000e+00 0.0000e+00 1.0000e+00
      -11  1    5    5    0    0 -3.8650505652e+00 +1.0001670826e+01 +1.3959527665e+01 1.7602285301e+01 0.0000000000e+00 0.0000e+00 1.0000e+00
       13  1    5    5    0    0 -2.0497445619e+01 -3.3148413829e+01 +1.2069641691e+02 1.2683291241e+02 0.0000000000e+00 0.0000e+00 1.0000e+00
<mgrwt>
<rscale>  0 0.12499525E+03</rscale>
<asrwt>0</asrwt>
<pdfrwt beam="1">  1       21 0.45047879E-01 0.12499525E+03</pdfrwt>
<pdfrwt beam="2">  1       21 0.54191692E-02 0.12499525E+03</pdfrwt>
<totfact> 0.11099330E+06</totfact>
</mgrwt>
</event>
<event>
 9      1 +9.5563000e+06 1.25011400e+02 7.81860800e-03 1.23505100e-01
       21 -1    0    0  502  501 +0.0000000000e+00 +0.0000000000e+00 +4.8147169401e+01 4.8147169401e+01 0.0000000000e+00 0.0000e+00 -1.0000e+00
       21 -1    0    0  501  502 -0.0000000000e+00 -0.0000000000e+00 -8.1146295034e+01 8.1146295034e+01 0.0000000000e+00 0.0000e+00 -1.0000e+00
       25  2    1    2    0    0 -1.7763568394e-15 -1.7763568394e-15 -3.2999125634e+01 1.2929346443e+02 1.2501143009e+02 0.0000e+00 0.0000e+00
  9000006  2    3    3    0    0 +5.9470525193e+00 -1.3440066606e+01 +3.0793765359e+01 5.2576218890e+01 3.9999999798e+01 0.0000e+00 0.0000e+00
  9000006  2    3    3    0    0 -5.9470525193e+00 +1.3440066606e+01 -6.3792890993e+01 7.6717245544e+01 3.9999999984e+01 0.0000e+00 0.0000e+00
      -11  1    4    4    0    0 -1.4879635132e+01 -3.7881523533e+00 +2.4258718959e+01 2.8709564355e+01 0.0000000000e+00 0.0000e+00 1.0000e+00
       13  1    4    4    0    0 +2.0826687652e+01 -9.6519142526e+00 +6.5350464001e+00 2.3866654536e+01 0.0000000000e+00 0.0000e+00 1.0000e+00
      -11  1    5    5    0    0 +9.0275610516e+00 +2.0894138564e+01 -2.1805366652e+01 3.1520404498e+01 0.0000000000e+00 0.0000e+00 1.0000e+00
       13  1    5    5    0    0 -1.4974613571e+01 -7.4540719580e+00 -4.1987524340e+01 4.5196841046e+01 0.0000000000e+00 0.0000e+00 1.0000e+00
<mgrwt>
<rscale>  0 0.12501143E+03</rscale>
<asrwt>0</asrwt>
<pdfrwt beam="1">  1       21 0.12036792E-01 0.12501143E+03</pdfrwt>
<pdfrwt beam="2">  1       21 0.20286574E-01 0.12501143E+03</pdfrwt>
<totfact> 0.13087937E+06</totfact>
</mgrwt>
</event>
<event>
 9      1 +9.5563000e+06 1.24995900e+02 7.81860800e-03 1.23507600e-01
       21 -1    0    0  502  501 +0.0000000000e+00 +0.0000000000e+00 +5.5032439350e+01 5.5032439350e+01 0.0000000000e+00 0.0000e+00 1.0000e+00
       21 -1    0    0  501  502 -0.0000000000e+00 -0.0000000000e+00 -7.0976162634e+01 7.0976162634e+01 0.0000000000e+00 0.0000e+00 1.0000e+00
       25  2    1    2    0    0 +0.0000000000e+00 +0.0000000000e+00 -1.5943723284e+01 1.2600860198e+02 1.2499586178e+02 0.0000e+00 0.0000e+00
  9000006  2    3    3    0    0 -3.7536101884e+01 -4.2082735930e+00 -3.7865497487e+01 6.6786708260e+01 3.9999999863e+01 0.0000e+00 0.0000e+00
  9000006  2    3    3    0    0 +3.7536101884e+01 +4.2082735930e+00 +2.1921774203e+01 5.9221893724e+01 4.0000000010e+01 0.0000e+00 0.0000e+00
      -11  1    4    4    0    0 -9.0697668982e-01 -1.5675460095e+01 -5.6853607543e+00 1.6699280907e+01 0.0000000000e+00 0.0000e+00 1.0000e+00
       13  1    4    4    0    0 -3.6629125194e+01 +1.1467186502e+01 -3.2180136732e+01 5.0087427353e+01 0.0000000000e+00 0.0000e+00 1.0000e+00
      -11  1    5    5    0    0 +3.9912060519e+01 +6.7586167516e+00 +3.0025579896e+01 5.0400267096e+01 0.0000000000e+00 0.0000e+00 1.0000e+00
       13  1    5    5    0    0 -2.3759586351e+00 -2.5503431586e+00 -8.1038056930e+00 8.8216266284e+00 0.0000000000e+00 0.0000e+00 1.0000e+00
<mgrwt>
<rscale>  0 0.12499586E+03</rscale>
<asrwt>0</asrwt>
<pdfrwt beam="1">  1       21 0.13758110E-01 0.12499586E+03</pdfrwt>
<pdfrwt beam="2">  1       21 0.17744041E-01 0.12499586E+03</pdfrwt>
<totfact> 0.13196809E+06</totfact>
</mgrwt>
</event>
<event>
 9      1 +9.5563000e+06 1.25003100e+02 7.81860800e-03 1.23506400e-01
       21 -1    0    0  502  501 +0.0000000000e+00 +0.0000000000e+00 +2.1473276473e+02 2.1473276473e+02 0.0000000000e+00 0.0000e+00 -1.0000e+00
       21 -1    0    0  501  502 -0.0000000000e+00 -0.0000000000e+00 -1.8192112306e+01 1.8192112306e+01 0.0000000000e+00 0.0000e+00 -1.0000e+00
       25  2    1    2    0    0 +0.0000000000e+00 +1.7763568394e-15 +1.9654065242e+02 2.3292487704e+02 1.2500308111e+02 0.0000e+00 0.0000e+00
  9000006  2    3    3    0    0 +3.9044410648e+01 +4.2044551732e+00 +1.4978451181e+02 1.5992980781e+02 4.0000000023e+01 0.0000e+00 0.0000e+00
  9000006  2    3    3    0    0 -3.9044410648e+01 -4.2044551732e+00 +4.6756140618e+01 7.2995069231e+01 4.0000000004e+01 0.0000e+00 0.0000e+00
      -11  1    4    4    0    0 +8.7220248634e+00 -1.6076090161e+01 +6.7254032274e+01 6.9696622943e+01 0.0000000000e+00 0.0000e+00 1.0000e+00
       13  1    4    4    0    0 +3.0322385784e+01 +2.0280545334e+01 +8.2530479533e+01 9.0233184863e+01 0.0000000000e+00 0.0000e+00 1.0000e+00
      -11  1    5    5    0    0 +2.6891517569e+00 +7.0671048950e-01 -5.3658824576e+00 6.0434817313e+00 0.0000000000e+00 0.0000e+00 1.0000e+00
       13  1    5    5    0    0 -4.1733562405e+01 -4.9111656627e+00 +5.2122023076e+01 6.6951587499e+01 0.0000000000e+00 0.0000e+00 1.0000e+00
<mgrwt>
<rscale>  0 0.12500308E+03</rscale>
<asrwt>0</asrwt>
<pdfrwt beam="1">  1       21 0.53683183E-01 0.12500308E+03</pdfrwt>
<pdfrwt beam="2">  1       21 0.45480287E-02 0.12500308E+03</pdfrwt>
<totfact> 0.10383920E+06</totfact>
</mgrwt>
</event>
<event>
 9      1 +9.5563000e+06 1.25000400e+02 7.81860800e-03 1.23506900e-01
       21 -1    0    0  502  501 +0.0000000000e+00 +0.0000000000e+00 +5.5768617631e+01 5.5768617631e+01 0.0000000000e+00 0.0000e+00 1.0000e+00
       21 -1    0    0  501  502 -0.0000000000e+00 -0.0000000000e+00 -7.0044274370e+01 7.0044274370e+01 0.0000000000e+00 0.0000e+00 1.0000e+00
       25  2    1    2    0    0 +0.0000000000e+00 -7.1054273576e-15 -1.4275656738e+01 1.2581289200e+02 1.2500035767e+02 0.0000e+00 0.0000e+00
  9000006  2    3    3    0    0 -3.5371848756e+01 -2.3901095257e+01 -2.9277226707e+01 6.5418545157e+01 4.0000000098e+01 0.0000e+00 0.0000e+00
  9000006  2    3    3    0    0 +3.5371848756e+01 +2.3901095257e+01 +1.5001569968e+01 6.0394346844e+01 3.9999999879e+01 0.0000e+00 0.0000e+00
      -11  1    5    5    0    0 +2.2122957806e+01 +2.6874311725e+00 -1.0534668278e+01 2.4650086899e+01 0.0000000000e+00 0.0000e+00 1.0000e+00
       13  1    4    4    0    0 -1.8687373365e+01 -3.1951362285e+01 -9.2825466376e+00 3.8161147090e+01 0.0000000000e+00 0.0000e+00 1.0000e+00
      -11  1    4    4    0    0 -1.6684475391e+01 +8.0502670278e+00 -1.9994680069e+01 2.7257398066e+01 0.0000000000e+00 0.0000e+00 1.0000e+00
       13  1    5    5    0    0 +1.3248890950e+01 +2.1213664085e+01 +2.5536238246e+01 3.5744259946e+01 0.0000000000e+00 0.0000e+00 1.0000e+00
<mgrwt>
<rscale>  0 0.12500036E+03</rscale>
<asrwt>0</asrwt>
<pdfrwt beam="1">  1       21 0.13942154E-01 0.12500036E+03</pdfrwt>
<pdfrwt beam="2">  1       21 0.17511068E-01 0.12500036E+03</pdfrwt>
<totfact> 0.13201314E+06</totfact>
</mgrwt>
</event>
<event>
 9      1 +9.5563000e+06 1.25004500e+02 7.81860800e-03 1.23506200e-01
       21 -1    0    0  502  501 +0.0000000000e+00 +0.0000000000e+00 +3.6493184451e+01 3.6493184451e+01 0.0000000000e+00 0.0000e+00 1.0000e+00
       21 -1    0    0  501  502 -0.0000000000e+00 -0.0000000000e+00 -1.0704823433e+02 1.0704823433e+02 0.0000000000e+00 0.0000e+00 1.0000e+00
       25  2    1    2    0    0 +3.5527136788e-15 +0.0000000000e+00 -7.0555049883e+01 1.4354141878e+02 1.2500449529e+02 0.0000e+00 0.0000e+00
  9000006  2    3    3    0    0 -1.5501545513e+01 -2.2661119298e+01 -8.0525205189e+01 9.4011344617e+01 4.0000000060e+01 0.0000e+00 0.0000e+00
  9000006  2    3    3    0    0 +1.5501545513e+01 +2.2661119298e+01 +9.9701553058e+00 4.9530074168e+01 4.0000000113e+01 0.0000e+00 0.0000e+00
      -11  1    5    5    0    0 +2.1710445430e+01 +2.0287356368e+01 -7.6625271147e+00 3.0686065094e+01 0.0000000000e+00 0.0000e+00 1.0000e+00
       13  1    4    4    0    0 +4.6982236954e+00 -1.8770502794e+01 -1.2724210685e+01 2.3158381174e+01 0.0000000000e+00 0.0000e+00 1.0000e+00
      -11  1    4    4    0    0 -2.0199769209e+01 -3.8906165036e+00 -6.7800994504e+01 7.0852963443e+01 0.0000000000e+00 0.0000e+00 1.0000e+00
       13  1    5    5    0    0 -6.2088999163e+00 +2.3737629296e+00 +1.7632682421e+01 1.8844009073e+01 0.0000000000e+00 0.0000e+00 1.0000e+00
<mgrwt>
<rscale>  0 0.12500450E+03</rscale>
<asrwt>0</asrwt>
<pdfrwt beam="1">  1       21 0.91232962E-02 0.12500450E+03</pdfrwt>
<pdfrwt beam="2">  1       21 0.26762058E-01 0.12500450E+03</pdfrwt>
<totfact> 0.12657377E+06</totfact>
</mgrwt>
</event>
<event>
 9      1 +9.5563000e+06 1.24998300e+02 7.81860800e-03 1.23507200e-01
       21 -1    0    0  502  501 +0.0000000000e+00 +0.0000000000e+00 +2.9219338914e+01 2.9219338914e+01 0.0000000000e+00 0.0000e+00 1.0000e+00
       21 -1    0    0  501  502 -0.0000000000e+00 -0.0000000000e+00 -1.3368360812e+02 1.3368360812e+02 0.0000000000e+00 0.0000e+00 1.0000e+00
       25  2    1    2    0    0 -1.7763568394e-15 +0.0000000000e+00 -1.0446426920e+02 1.6290294703e+02 1.2499834643e+02 0.0000e+00 0.0000e+00
  9000006  2    3    3    0    0 -1.4088813103e+01 -2.3535523321e+01 -1.0360249467e+02 1.1439358556e+02 4.0000000035e+01 0.0000e+00 0.0000e+00
  9000006  2    3    3    0    0 +1.4088813103e+01 +2.3535523321e+01 -8.6177453509e-01 4.8509361472e+01 3.9999999780e+01 0.0000e+00 0.0000e+00
      -11  1    5    5    0    0 -1.0611320652e+01 +2.0019796271e+01 -5.0423377481e+00 2.3212443617e+01 0.0000000000e+00 0.0000e+00 1.0000e+00
       13  1    4    4    0    0 -7.1271460968e+00 +1.0101020140e+00 +4.9468274589e-01 7.2153467403e+00 0.0000000000e+00 0.0000e+00 1.0000e+00
      -11  1    4    4    0    0 -6.9616670061e+00 -2.4545625335e+01 -1.0409717742e+02 1.0717823882e+02 0.0000000000e+00 0.0000e+00 1.0000e+00
       13  1    5    5    0    0 +2.4700133755e+01 +3.5157270502e+00 +4.1805632130e+00 2.5296917855e+01 0.0000000000e+00 0.0000e+00 1.0000e+00
<mgrwt>
<rscale>  0 0.12499835E+03</rscale>
<asrwt>0</asrwt>
<pdfrwt beam="1">  1       21 0.73048348E-02 0.12499835E+03</pdfrwt>
<pdfrwt beam="2">  1       21 0.33420902E-01 0.12499835E+03</pdfrwt>
<totfact> 0.12104516E+06</totfact>
</mgrwt>
</event>
<event>
 9      1 +9.5563000e+06 1.25000100e+02 7.81860800e-03 1.23506900e-01
       21 -1    0    0  502  501 +0.0000000000e+00 +0.0000000000e+00 +6.0565733501e+01 6.0565733501e+01 0.0000000000e+00 0.0000e+00 -1.0000e+00
       21 -1    0    0  501  502 -0.0000000000e+00 -0.0000000000e+00 -6.4496175092e+01 6.4496175092e+01 0.0000000000e+00 0.0000e+00 -1.0000e+00
       25  2    1    2    0    0 +3.5527136788e-15 +0.0000000000e+00 -3.9304415912e+00 1.2506190859e+02 1.2500013044e+02 0.0000e+00 0.0000e+00
  9000006  2    3    3    0    0 -3.1381802969e+01 -3.0475697233e+01 -2.1790979609e+01 6.3154037668e+01 4.0000000025e+01 0.0000e+00 0.0000e+00
  9000006  2    3    3    0    0 +3.1381802969e+01 +3.0475697233e+01 +1.7860538018e+01 6.1907870925e+01 3.9999999809e+01 0.0000e+00 0.0000e+00
      -11  1    5    5    0    0 -4.0199539130e+00 -6.7760923798e+00 +2.6806289935e+00 8.3223331586e+00 0.0000000000e+00 0.0000e+00 1.0000e+00
       13  1    4    4    0    0 -1.7224207257e+01 -3.4159503833e+01 -2.7850066758e+01 4.7319882039e+01 0.0000000000e+00 0.0000e+00 1.0000e+00
      -11  1    4    4    0    0 -1.4157595712e+01 +3.6838066002e+00 +6.0590871483e+00 1.5834155629e+01 0.0000000000e+00 0.0000e+00 1.0000e+00
       13  1    5    5    0    0 +3.5401756882e+01 +3.7251789612e+01 +1.5179909024e+01 5.3585537766e+01 0.0000000000e+00 0.0000e+00 1.0000e+00
<mgrwt>
<rscale>  0 0.12500013E+03</rscale>
<asrwt>0</asrwt>
<pdfrwt beam="1">  1       21 0.15141433E-01 0.12500013E+03</pdfrwt>
<pdfrwt beam="2">  1       21 0.16124044E-01 0.12500013E+03</pdfrwt>
<totfact> 0.13224716E+06</totfact>
</mgrwt>
</event>
<event>
 9      1 +9.5563000e+06 1.25008700e+02 7.81860800e-03 1.23505600e-01
       21 -1    0    0  502  501 +0.0000000000e+00 +0.0000000000e+00 +9.4956963600e+01 9.4956963600e+01 0.0000000000e+00 0.0000e+00 -1.0000e+00
       21 -1    0    0  501  502 -0.0000000000e+00 -0.0000000000e+00 -4.1142762035e+01 4.1142762035e+01 0.0000000000e+00 0.0000e+00 -1.0000e+00
       25  2    1    2    0    0 +0.0000000000e+00 -7.1054273576e-15 +5.3814201565e+01 1.3609972563e+02 1.2500866781e+02 0.0000e+00 0.0000e+00
  9000006  2    3    3    0    0 -1.1431306203e+01 -4.0212380723e+01 +1.1643674640e+00 5.7871116069e+01 3.9999999982e+01 0.0000e+00 0.0000e+00
  9000006  2    3    3    0    0 +1.1431306203e+01 +4.0212380723e+01 +5.2649834101e+01 7.8228609566e+01 3.9999999986e+01 0.0000e+00 0.0000e+00
      -11  1    4    4    0    0 +1.1118287154e+01 -1.8315786175e+01 -1.1100915050e+01 2.4131196560e+01 0.0000000000e+00 0.0000e+00 1.0000e+00
       13  1    4    4    0    0 -2.2549593357e+01 -2.1896594548e+01 +1.2265282514e+01 3.3739919509e+01 0.0000000000e+00 0.0000e+00 1.0000e+00
      -11  1    5    5    0    0 +2.6009154264e+01 +1.9511748790e+01 +3.0771023627e+01 4.4766509150e+01 0.0000000000e+00 0.0000e+00 1.0000e+00
       13  1    5    5    0    0 -1.4577848061e+01 +2.0700631933e+01 +2.1878810474e+01 3.3462100416e+01 0.0000000000e+00 0.0000e+00 1.0000e+00
<mgrwt>
<rscale>  0 0.12500867E+03</rscale>
<asrwt>0</asrwt>
<pdfrwt beam="1">  1       21 0.23739241E-01 0.12500867E+03</pdfrwt>
<pdfrwt beam="2">  1       21 0.10285691E-01 0.12500867E+03</pdfrwt>
<totfact> 0.12878475E+06</totfact>
</mgrwt>
</event>
<event>
 9      1 +9.5563000e+06 1.25000400e+02 7.81860800e-03 1.23506900e-01
       21 -1    0    0  502  501 +0.0000000000e+00 +0.0000000000e+00 +5.5020291308e+02 5.5020291308e+02 0.0000000000e+00 0.0000e+00 -1.0000e+00
       21 -1    0    0  501  502 -0.0000000000e+00 -0.0000000000e+00 -7.0996961300e+00 7.0996961300e+00 0.0000000000e+00 0.0000e+00 -1.0000e+00
       25  2    1    2    0    0 +7.1054273576e-15 +0.0000000000e+00 +5.4310321695e+02 5.5730260921e+02 1.2500037588e+02 0.0000e+00 0.0000e+00
  9000006  2    3    3    0    0 -3.6601402547e+01 -1.0941880301e+01 +4.0129709295e+02 4.0509103203e+02 4.0000000137e+01 0.0000e+00 0.0000e+00
  9000006  2    3    3    0    0 +3.6601402547e+01 +1.0941880301e+01 +1.4180612401e+02 1.5221157718e+02 4.0000000122e+01 0.0000e+00 0.0000e+00
      -11  1    4    4    0    0 -3.1546701756e+01 -1.1336353844e+01 +1.4823000688e+02 1.5197316292e+02 0.0000000000e+00 0.0000e+00 1.0000e+00
       13  1    4    4    0    0 -5.0547007910e+00 +3.9447354240e-01 +2.5306708607e+02 2.5311786911e+02 0.0000000000e+00 0.0000e+00 1.0000e+00
      -11  1    5    5    0    0 +1.0082981294e+01 -1.4334623081e+01 +6.1410991752e+01 6.3862804813e+01 0.0000000000e+00 0.0000e+00 1.0000e+00
       13  1    5    5    0    0 +2.6518421253e+01 +2.5276503382e+01 +8.0395132257e+01 8.8348772372e+01 0.0000000000e+00 0.0000e+00 1.0000e+00
<mgrwt>
<rscale>  0 0.12500038E+03</rscale>
<asrwt>0</asrwt>
<pdfrwt beam="1">  1       21 0.13755058E+00 0.12500038E+03</pdfrwt>
<pdfrwt beam="2">  1       21 0.17749259E-02 0.12500038E+03</pdfrwt>
<totfact> 0.56824063E+05</totfact>
</mgrwt>
</event>
<event>
 8      1 +9.5563000e+06 1.25002400e+02 7.81860800e-03 1.23506500e-01
       21 -1    0    0  502  501 +0.0000000000e+00 +0.0000000000e+00 +2.7189137567e+02 2.7189137567e+02 0.0000000000e+00 0.0000e+00 -1.0000e+00
       21 -1    0    0  501  502 -0.0000000000e+00 -0.0000000000e+00 -1.4367507725e+01 1.4367507725e+01 0.0000000000e+00 0.0000e+00 -1.0000e+00
       25  2    1    2    0    0 +0.0000000000e+00 +0.0000000000e+00 +2.5752386794e+02 2.8625888339e+02 1.2500242302e+02 0.0000e+00 0.0000e+00
  9000006  2    3    3    0    0 -3.4427356584e+01 +5.5069563901e+00 +5.3127512430e+01 7.5087295865e+01 3.9999999666e+01 0.0000e+00 0.0000e+00
      -11  1    3    3    0    0 +3.0505741692e+01 -2.0226376217e+01 +1.2173985273e+02 1.2712316199e+02 0.0000000000e+00 0.0000e+00 1.0000e+00
       13  1    4    4    0    0 -2.1580898471e+01 +2.0431948898e+01 +1.7798791729e+01 3.4640968543e+01 0.0000000000e+00 0.0000e+00 1.0000e+00
      -11  1    4    4    0    0 -1.2846458113e+01 -1.4924992508e+01 +3.5328720701e+01 4.0446327322e+01 0.0000000000e+00 0.0000e+00 1.0000e+00
       13  1    3    3    0    0 +3.9216148924e+00 +1.4719419827e+01 +8.2656502786e+01 8.4048425543e+01 0.0000000000e+00 0.0000e+00 1.0000e+00
<mgrwt>
<rscale>  0 0.12500242E+03</rscale>
<asrwt>0</asrwt>
<pdfrwt beam="1">  1       21 0.67972827E-01 0.12500242E+03</pdfrwt>
<pdfrwt beam="2">  1       21 0.35918778E-02 0.12500242E+03</pdfrwt>
<totfact> 0.93077724E+05</totfact>
</mgrwt>
</event>
<event>
 9      1 +9.5563000e+06 1.24997900e+02 7.81860800e-03 1.23507300e-01
       21 -1    0    0  502  501 +0.0000000000e+00 +0.0000000000e+00 +5.1532075165e+00 5.1532075165e+00 0.0000000000e+00 0.0000e+00 1.0000e+00
       21 -1    0    0  501  502 -0.0000000000e+00 -0.0000000000e+00 -7.5799737257e+02 7.5799737257e+02 0.0000000000e+00 0.0000e+00 1.0000e+00
       25  2    1    2    0    0 +3.5527136788e-15 +0.0000000000e+00 -7.5284416505e+02 7.6315058008e+02 1.2499788411e+02 0.0000e+00 0.0000e+00
  9000006  2    3    3    0    0 -2.7811913326e+01 -3.3503032228e+01 -2.5277458675e+02 2.5959766445e+02 3.9999999871e+01 0.0000e+00 0.0000e+00
  9000006  2    3    3    0    0 +2.7811913326e+01 +3.3503032228e+01 -5.0006957830e+02 5.0355291563e+02 4.0000000130e+01 0.0000e+00 0.0000e+00
      -11  1    5    5    0    0 -2.0432856608e+00 +1.3346739575e+01 -4.3093919236e+01 4.5159676136e+01 0.0000000000e+00 0.0000e+00 1.0000e+00
       13  1    4    4    0    0 -2.5771569998e+00 -8.5650655777e+00 -1.6032533823e+02 1.6057464360e+02 0.0000000000e+00 0.0000e+00 1.0000e+00
      -11  1    4    4    0    0 -2.5234756326e+01 -2.4937966651e+01 -9.2449248515e+01 9.9023020852e+01 0.0000000000e+00 0.0000e+00 1.0000e+00
       13  1    5    5    0    0 +2.9855198987e+01 +2.0156292653e+01 -4.5697565906e+02 4.5839323950e+02 0.0000000000e+00 0.0000e+00 1.0000e+00
<mgrwt>
<rscale>  0 0.12499788E+03</rscale>
<asrwt>0</asrwt>
<pdfrwt beam="1">  1       21 0.12883014E-02 0.12499788E+03</pdfrwt>
<pdfrwt beam="2">  1       21 0.18949942E+00 0.12499788E+03</pdfrwt>
<totfact> 0.40428599E+05</totfact>
</mgrwt>
</event>
<event>
 8      1 +9.5563000e+06 1.25006500e+02 7.81860800e-03 1.23505900e-01
       21 -1    0    0  502  501 +0.0000000000e+00 +0.0000000000e+00 +7.0397941404e+01 7.0397941404e+01 0.0000000000e+00 0.0000e+00 -1.0000e+00
       21 -1    0    0  501  502 -0.0000000000e+00 -0.0000000000e+00 -5.5493894663e+01 5.5493894663e+01 0.0000000000e+00 0.0000e+00 -1.0000e+00
       25  2    1    2    0    0 -7.1054273576e-15 -3.5527136788e-15 +1.4904046742e+01 1.2589183607e+02 1.2500649495e+02 0.0000e+00 0.0000e+00
  9000006  2    3    3    0    0 -4.2191300415e+01 -2.2942752366e+01 +7.0246364990e+00 6.2895319902e+01 4.0000000385e+01 0.0000e+00 0.0000e+00
      -11  1    4    4    0    0 -2.5581180524e+01 +7.7203221431e+00 -2.2347594200e+00 2.6814069454e+01 0.0000000000e+00 0.0000e+00 1.0000e+00
       13  1    3    3    0    0 +4.9710308610e+01 +1.5887267127e+01 +6.3310624694e+00 5.2569976135e+01 0.0000000000e+00 0.0000e+00 1.0000e+00
      -11  1    3    3    0    0 -7.5190081943e+00 +7.0554852387e+00 +1.5483477731e+00 1.0426540030e+01 0.0000000000e+00 0.0000e+00 1.0000e+00
       13  1    4    4    0    0 -1.6610119891e+01 -3.0663074509e+01 +9.2593959190e+00 3.6081250448e+01 0.0000000000e+00 0.0000e+00 1.0000e+00
<mgrwt>
<rscale>  0 0.12500649E+03</rscale>
<asrwt>0</asrwt>
<pdfrwt beam="1">  1       21 0.17599485E-01 0.12500649E+03</pdfrwt>
<pdfrwt beam="2">  1       21 0.13873474E-01 0.12500649E+03</pdfrwt>
<totfact> 0.13196725E+06</totfact>
</mgrwt>
</event>
<event>
 9      1 +9.5563000e+06 1.25000800e+02 7.81860800e-03 1.23506800e-01
       21 -1    0    0  502  501 +0.0000000000e+00 +0.0000000000e+00 +2.5659492460e+01 2.5659492460e+01 0.0000000000e+00 0.0000e+00 1.0000e+00
       21 -1    0    0  501  502 -0.0000000000e+00 -0.0000000000e+00 -1.5223605884e+02 1.5223605884e+02 0.0000000000e+00 0.0000e+00 1.0000e+00
       25  2    1    2    0    0 +7.1054273576e-15 +0.0000000000e+00 -1.2657656638e+02 1.7789555130e+02 1.2500080006e+02 0.0000e+00 0.0000e+00
  9000006  2    3    3    0    0 -4.5934536085e+01 -1.0348663126e+00 -4.3402395474e+01 7.4798532654e+01 4.0000000010e+01 0.0000e+00 0.0000e+00
  9000006  2    3    3    0    0 +4.5934536085e+01 +1.0348663126e+00 -8.3174170910e+01 1.0309701865e+02 3.9999999926e+01 0.0000e+00 0.0000e+00
      -11  1    4    4    0    0 -1.1046704426e+01 +2.7576301756e+00 -3.7527686267e+01 3.9216851473e+01 0.0000000000e+00 0.0000e+00 1.0000e+00
       13  1    4    4    0    0 -3.4887831659e+01 -3.7924964883e+00 -5.8747092066e+00 3.5581681182e+01 0.0000000000e+00 0.0000e+00 1.0000e+00
      -11  1    5    5    0    0 +3.5171713106e+01 +1.3940952880e+01 -3.3069543084e+01 5.0249320889e+01 0.0000000000e+00 0.0000e+00 1.0000e+00
       13  1    5    5    0    0 +1.0762822979e+01 -1.2906086567e+01 -5.0104627825e+01 5.2847697760e+01 0.0000000000e+00 0.0000e+00 1.0000e+00
<mgrwt>
<rscale>  0 0.12500080E+03</rscale>
<asrwt>0</asrwt>
<pdfrwt beam="1">  1       21 0.64148732E-02 0.12500080E+03</pdfrwt>
<pdfrwt beam="2">  1       21 0.38059014E-01 0.12500080E+03</pdfrwt>
<totfact> 0.11701348E+06</totfact>
</mgrwt>
</event>
<event>
 9      1 +9.5563000e+06 1.25009700e+02 7.81860800e-03 1.23505400e-01
       21 -1    0    0  502  501 +0.0000000000e+00 +0.0000000000e+00 +4.0948169187e+01 4.0948169187e+01 0.0000000000e+00 0.0000e+00 -1.0000e+00
       21 -1    0    0  501  502 -0.0000000000e+00 -0.0000000000e+00 -9.5409748253e+01 9.5409748253e+01 0.0000000000e+00 0.0000e+00 -1.0000e+00
       25  2    1    2    0    0 +0.0000000000e+00 +0.0000000000e+00 -5.4461579065e+01 1.3635791744e+02 1.2500967184e+02 0.0000e+00 0.0000e+00
  9000006  2    3    3    0    0 +4.2562946972e+01 +1.1507052687e+01 -4.8008275859e+01 7.6477521308e+01 3.9999999974e+01 0.0000e+00 0.0000e+00
  9000006  2    3    3    0    0 -4.2562946972e+01 -1.1507052687e+01 -6.4533032061e+00 5.9880396132e+01 4.0000000028e+01 0.0000e+00 0.0000e+00
      -11  1    5    5    0    0 -3.9504661675e+01 -1.9070486872e+01 +6.7267990196e+00 4.4379630334e+01 0.0000000000e+00 0.0000e+00 1.0000e+00
       13  1    4    4    0    0 +4.5289926953e+01 +1.6679552933e+01 -5.0736065796e+01 7.0025233608e+01 0.0000000000e+00 0.0000e+00 1.0000e+00
      -11  1    4    4    0    0 -2.7269799815e+00 -5.1725002465e+00 +2.7277899364e+00 6.4522876995e+00 0.0000000000e+00 0.0000e+00 1.0000e+00
       13  1    5    5    0    0 -3.0582852972e+00 +7.5634341852e+00 -1.3180102226e+01 1.5500765798e+01 0.0000000000e+00 0.0000e+00 1.0000e+00
<mgrwt>
<rscale>  0 0.12500967E+03</rscale>
<asrwt>0</asrwt>
<pdfrwt beam="1">  1       21 0.10237042E-01 0.12500967E+03</pdfrwt>
<pdfrwt beam="2">  1       21 0.23852437E-01 0.12500967E+03</pdfrwt>
<totfact> 0.12870295E+06</totfact>
</mgrwt>
</event>
<event>
 9      1 +9.5563000e+06 1.25034000e+02 7.81860800e-03 1.23501600e-01
       21 -1    0    0  502  501 +0.0000000000e+00 +0.0000000000e+00 +2.5337493863e+01 2.5337493863e+01 0.0000000000e+00 0.0000e+00 -1.0000e+00
       21 -1    0    0  501  502 -0.0000000000e+00 -0.0000000000e+00 -1.5425255910e+02 1.5425255910e+02 0.0000000000e+00 0.0000e+00 -1.0000e+00
       25  2    1    2    0    0 +3.5527136788e-15 +0.0000000000e+00 -1.2891506524e+02 1.7959005296e+02 1.2503396770e+02 0.0000e+00 0.0000e+00
  9000006  2    3    3    0    0 +2.2622198437e+01 -4.1824678997e+01 -5.4578584742e+01 8.2703624781e+01 4.0000000052e+01 0.0000e+00 0.0000e+00
  9000006  2    3    3    0    0 -2.2622198437e+01 +4.1824678997e+01 -7.4336480493e+01 9.6886428180e+01 3.9999999978e+01 0.0000e+00 0.0000e+00
      -11  1    5    5    0    0 -6.4369233471e+00 +4.0131412703e+01 -6.8398544565e+01 7.9563340593e+01 0.0000000000e+00 0.0000e+00 1.0000e+00
       13  1    4    4    0    0 -3.8629259167e+00 -2.6127651040e+01 -9.4047680644e+00 2.8036155368e+01 0.0000000000e+00 0.0000e+00 1.0000e+00
      -11  1    4    4    0    0 +2.6485124354e+01 -1.5697027957e+01 -4.5173816678e+01 5.4667469413e+01 0.0000000000e+00 0.0000e+00 1.0000e+00
       13  1    5    5    0    0 -1.6185275090e+01 +1.6932662934e+00 -5.9379359278e+00 1.7323087587e+01 0.0000000000e+00 0.0000e+00 1.0000e+00
<mgrwt>
<rscale>  0 0.12503397E+03</rscale>
<asrwt>0</asrwt>
<pdfrwt beam="1">  1       21 0.63343736E-02 0.12503397E+03</pdfrwt>
<pdfrwt beam="2">  1       21 0.38563139E-01 0.12503397E+03</pdfrwt>
<totfact> 0.11647117E+06</totfact>
</mgrwt>
</event>
<event>
 9      1 +9.5563000e+06 1.24997500e+02 7.81860800e-03 1.23507300e-01
       21 -1    0    0  502  501 +0.0000000000e+00 +0.0000000000e+00 +4.0637546627e+02 4.0637546627e+02 0.0000000000e+00 0.0000e+00 1.0000e+00
       21 -1    0    0  501  502 -0.0000000000e+00 -0.0000000000e+00 -9.6120374974e+00 9.6120374974e+00 0.0000000000e+00 0.0000e+00 1.0000e+00
       25  2    1    2    0    0 +0.0000000000e+00 -7.1054273576e-15 +3.9676342878e+02 4.1598750377e+02 1.2499753949e+02 0.0000e+00 0.0000e+00
  9000006  2    3    3    0    0 -4.2989523283e+01 -2.0799634395e+01 +2.1514498886e+02 2.2398234337e+02 4.0000000087e+01 0.0000e+00 0.0000e+00
  9000006  2    3    3    0    0 +4.2989523283e+01 +2.0799634395e+01 +1.8161843992e+02 1.9200516040e+02 3.9999999998e+01 0.0000e+00 0.0000e+00
      -11  1    4    4    0    0 -7.1874961746e+00 +3.1794381927e+00 +4.6708338762e+00 9.1425170265e+00 0.0000000000e+00 0.0000e+00 1.0000e+00
       13  1    4    4    0    0 -3.5802027109e+01 -2.3979072588e+01 +2.1047415498e+02 2.1483982634e+02 0.0000000000e+00 0.0000e+00 1.0000e+00
      -11  1    5    5    0    0 +1.8955964657e+01 +2.9364330306e+01 +8.1329272446e+01 8.8521427050e+01 0.0000000000e+00 0.0000e+00 1.0000e+00
       13  1    5    5    0    0 +2.4033558627e+01 -8.5646959108e+00 +1.0028916747e+02 1.0348373335e+02 0.0000000000e+00 0.0000e+00 1.0000e+00
<mgrwt>
<rscale>  0 0.12499754E+03</rscale>
<asrwt>0</asrwt>
<pdfrwt beam="1">  1       21 0.10159381E+00 0.12499754E+03</pdfrwt>
<pdfrwt beam="2">  1       21 0.24030107E-02 0.12499754E+03</pdfrwt>
<totfact> 0.72745453E+05</totfact>
</mgrwt>
</event>
<event>
 9      1 +9.5563000e+06 1.24999800e+02 7.81860800e-03 1.23507000e-01
       21 -1    0    0  502  501 +0.0000000000e+00 +0.0000000000e+00 +1.1177525718e+01 1.1177525718e+01 0.0000000000e+00 0.0000e+00 -1.0000e+00
       21 -1    0    0  501  502 -0.0000000000e+00 -0.0000000000e+00 -3.4947234343e+02 3.4947234343e+02 0.0000000000e+00 0.0000e+00 -1.0000e+00
       25  2    1    2    0    0 -3.5527136788e-15 +0.0000000000e+00 -3.3829481771e+02 3.6064986914e+02 1.2499977770e+02 0.0000e+00 0.0000e+00
  9000006  2    3    3    0    0 -2.5576615203e+01 +8.3139589668e-01 -2.8639401027e+02 2.9030395035e+02 4.0000000069e+01 0.0000e+00 0.0000e+00
  9000006  2    3    3    0    0 +2.5576615203e+01 -8.3139589668e-01 -5.1900807434e+01 7.0345918790e+01 4.0000000171e+01 0.0000e+00 0.0000e+00
      -11  1    5    5    0    0 -1.1925314582e+00 +1.0419421987e+01 -3.5457642050e+01 3.6976085050e+01 0.0000000000e+00 0.0000e+00 1.0000e+00
       13  1    4    4    0    0 -1.1945516212e+00 -8.5661623264e+00 -1.2700152589e+01 1.5365544779e+01 0.0000000000e+00 0.0000e+00 1.0000e+00
      -11  1    4    4    0    0 -2.4382063582e+01 +9.3975582231e+00 -2.7369385769e+02 2.7493840557e+02 0.0000000000e+00 0.0000e+00 1.0000e+00
       13  1    5    5    0    0 +2.6769146661e+01 -1.1250817884e+01 -1.6443165383e+01 3.3369833740e+01 0.0000000000e+00 0.0000e+00 1.0000e+00
<mgrwt>
<rscale>  0 0.12499978E+03</rscale>
<asrwt>0</asrwt>
<pdfrwt beam="1">  1       21 0.27943815E-02 0.12499978E+03</pdfrwt>
<pdfrwt beam="2">  1       21 0.87368084E-01 0.12499978E+03</pdfrwt>
<totfact> 0.80582792E+05</totfact>
</mgrwt>
</event>
<event>
 9      1 +9.5563000e+06 1.25019200e+02 7.81860800e-03 1.23503900e-01
       21 -1    0    0  502  501 +0.0000000000e+00 +0.0000000000e+00 +7.9370546273e+01 7.9370546273e+01 0.0000000000e+00 0.0000e+00 -1.0000e+00
       21 -1    0    0  501  502 -0.0000000000e+00 -0.0000000000e+00 -4.9230446813e+01 4.9230446813e+01 0.0000000000e+00 0.0000e+00 -1.0000e+00
       25  2    1    2    0    0 +0.0000000000e+00 +0.0000000000e+00 +3.0140099461e+01 1.2860099309e+02 1.2501915784e+02 0.0000e+00 0.0000e+00
  9000006  2    3    3    0    0 +4.3883391154e+01 -8.6415535768e+00 -2.9539168809e+00 6.0076235600e+01 3.9999999895e+01 0.0000e+00 0.0000e+00
  9000006  2    3    3    0    0 -4.3883391154e+01 +8.6415535768e+00 +3.3094016342e+01 6.8524757486e+01 4.0000000043e+01 0.0000e+00 0.0000e+00
      -11  1    4    4    0    0 -5.4541897236e+00 +4.1764693906e+00 +4.9830442404e+00 8.4865665621e+00 0.0000000000e+00 0.0000e+00 1.0000e+00
       13  1    4    4    0    0 +4.9337580877e+01 -1.2818022967e+01 -7.9369611213e+00 5.1589669038e+01 0.0000000000e+00 0.0000e+00 1.0000e+00
      -11  1    5    5    0    0 -2.4180614932e+01 +1.5971332874e+00 +3.9761206476e+01 4.6564004485e+01 0.0000000000e+00 0.0000e+00 1.0000e+00
       13  1    5    5    0    0 -1.9702776222e+01 +7.0444202894e+00 -6.6671901347e+00 2.1960753001e+01 0.0000000000e+00 0.0000e+00 1.0000e+00
<mgrwt>
<rscale>  0 0.12501916E+03</rscale>
<asrwt>0</asrwt>
<pdfrwt beam="1">  1       21 0.19842636E-01 0.12501916E+03</pdfrwt>
<pdfrwt beam="2">  1       21 0.12307612E-01 0.12501916E+03</pdfrwt>
<totfact> 0.13107151E+06</totfact>
</mgrwt>
</event>
<event>
 9      1 +9.5563000e+06 1.25025000e+02 7.81860800e-03 1.23503000e-01
       21 -1    0    0  502  501 +0.0000000000e+00 +0.0000000000e+00 +5.3873905710e+01 5.3873905710e+01 0.0000000000e+00 0.0000e+00 1.0000e+00
       21 -1    0    0  501  502 -0.0000000000e+00 -0.0000000000e+00 -7.2536251364e+01 7.2536251364e+01 0.0000000000e+00 0.0000e+00 1.0000e+00
       25  2    1    2    0    0 +0.0000000000e+00 +7.1054273576e-15 -1.8662345654e+01 1.2641015707e+02 1.2502497617e+02 0.0000e+00 0.0000e+00
  9000006  2    3    3    0    0 -2.2622587933e+01 +3.4743702557e+01 +1.5205052061e+01 5.9582715254e+01 3.9999999959e+01 0.0000e+00 0.0000e+00
  9000006  2    3    3    0    0 +2.2622587933e+01 -3.4743702557e+01 -3.3867397715e+01 6.6827441821e+01 4.0000000002e+01 0.0000e+00 0.0000e+00
      -11  1    5    5    0    0 +4.4042944720e-01 +5.6166264433e+00 -1.6787964612e+01 1.7708083649e+01 0.0000000000e+00 0.0000e+00 1.0000e+00
       13  1    4    4    0    0 -2.9837899876e+01 +1.3668226546e+01 +1.7490844304e+01 3.7189384513e+01 0.0000000000e+00 0.0000e+00 1.0000e+00
      -11  1    4    4    0    0 +7.2153119435e+00 +2.1075476010e+01 -2.2857922434e+00 2.2393330741e+01 0.0000000000e+00 0.0000e+00 1.0000e+00
       13  1    5    5    0    0 +2.2182158486e+01 -4.0360329000e+01 -1.7079433103e+01 4.9119358172e+01 0.0000000000e+00 0.0000e+00 1.0000e+00
<mgrwt>
<rscale>  0 0.12502498E+03</rscale>
<asrwt>0</asrwt>
<pdfrwt beam="1">  1       21 0.13468477E-01 0.12502498E+03</pdfrwt>
<pdfrwt beam="2">  1       21 0.18134063E-01 0.12502498E+03</pdfrwt>
<totfact> 0.13174222E+06</totfact>
</mgrwt>
</event>
<event>
 9      1 +9.5563000e+06 1.24991800e+02 7.81860800e-03 1.23508200e-01
       21 -1    0    0  502  501 +0.0000000000e+00 +0.0000000000e+00 +5.5195576955e+02 5.5195576955e+02 0.0000000000e+00 0.0000e+00 1.0000e+00
       21 -1    0    0  501  502 -0.0000000000e+00 -0.0000000000e+00 -7.0761839235e+00 7.0761839235e+00 0.0000000000e+00 0.0000e+00 1.0000e+00
       25  2    1    2    0    0 +0.0000000000e+00 +0.0000000000e+00 +5.4487958562e+02 5.5903195347e+02 1.2499184842e+02 0.0000e+00 0.0000e+00
  9000006  2    3    3    0    0 -4.2072288622e+01 -2.1326319478e+01 +2.3222386576e+02 2.4031814996e+02 4.0000000004e+01 0.0000e+00 0.0000e+00
  9000006  2    3    3    0    0 +4.2072288622e+01 +2.1326319478e+01 +3.1265571987e+02 3.1871380351e+02 4.0000000139e+01 0.0000e+00 0.0000e+00
      -11  1    5    5    0    0 +1.5887521300e+01 +2.4481469545e+01 +2.3264054712e+02 2.3446402676e+02 0.0000000000e+00 0.0000e+00 1.0000e+00
       13  1    4    4    0    0 -2.7134831524e+01 -7.9852339014e+00 +5.3879860501e+01 6.0853121612e+01 0.0000000000e+00 0.0000e+00 1.0000e+00
      -11  1    4    4    0    0 -1.4937457097e+01 -1.3341085576e+01 +1.7834400526e+02 1.7946502835e+02 0.0000000000e+00 0.0000e+00 1.0000e+00
       13  1    5    5    0    0 +2.6184767321e+01 -3.1551500672e+00 +8.0015172752e+01 8.4249776748e+01 0.0000000000e+00 0.0000e+00 1.0000e+00
<mgrwt>
<rscale>  0 0.12499185E+03</rscale>
<asrwt>0</asrwt>
<pdfrwt beam="1">  1       21 0.13798880E+00 0.12499185E+03</pdfrwt>
<pdfrwt beam="2">  1       21 0.17690478E-02 0.12499185E+03</pdfrwt>
<totfact> 0.56669546E+05</totfact>
</mgrwt>
</event>
<event>
 9      1 +9.5563000e+06 1.24999900e+02 7.81860800e-03 1.23506900e-01
       21 -1    0    0  502  501 +0.0000000000e+00 +0.0000000000e+00 +5.8893630701e+01 5.8893630701e+01 0.0000000000e+00 0.0000e+00 1.0000e+00
       21 -1    0    0  501  502 -0.0000000000e+00 -0.0000000000e+00 -6.6327066723e+01 6.6327066723e+01 0.0000000000e+00 0.0000e+00 1.0000e+00
       25  2    1    2    0    0 +0.0000000000e+00 -1.7763568394e-15 -7.4334360222e+00 1.2522069742e+02 1.2499986837e+02 0.0000e+00 0.0000e+00
  9000006  2    3    3    0    0 -4.1018754135e+01 +1.1823488309e+01 +1.8320068429e+01 6.1302185673e+01 3.9999999930e+01 0.0000e+00 0.0000e+00
  9000006  2    3    3    0    0 +4.1018754135e+01 -1.1823488309e+01 -2.5753504452e+01 6.3918511752e+01 4.0000001080e+01 0.0000e+00 0.0000e+00
      -11  1    4    4    0    0 -2.0421554761e+01 -1.4146990517e+01 +3.8702648588e+00 2.5142716433e+01 0.0000000000e+00 0.0000e+00 1.0000e+00
       13  1    4    4    0    0 -2.0597199375e+01 +2.5970478826e+01 +1.4449803570e+01 3.6159469240e+01 0.0000000000e+00 0.0000e+00 1.0000e+00
      -11  1    5    5    0    0 +1.5617134538e+01 +1.1028597833e+01 -2.2604572762e+01 2.9605600334e+01 0.0000000000e+00 0.0000e+00 1.0000e+00
       13  1    5    5    0    0 +2.5401619597e+01 -2.2852086142e+01 -3.1489316891e+00 3.4312911418e+01 0.0000000000e+00 0.0000e+00 1.0000e+00
<mgrwt>
<rscale>  0 0.12499987E+03</rscale>
<asrwt>0</asrwt>
<pdfrwt beam="1">  1       21 0.14723408E-01 0.12499987E+03</pdfrwt>
<pdfrwt beam="2">  1       21 0.16581767E-01 0.12499987E+03</pdfrwt>
<totfact> 0.13219874E+06</totfact>
</mgrwt>
</event>
<event>
 9      1 +9.5563000e+06 1.25000400e+02 7.81860800e-03 1.23506900e-01
       21 -1    0    0  502  501 +0.0000000000e+00 +0.0000000000e+00 +2.4946949216e+01 2.4946949216e+01 0.0000000000e+00 0.0000e+00 1.0000e+00
       21 -1    0    0  501  502 -0.0000000000e+00 -0.0000000000e+00 -1.5658339561e+02 1.5658339561e+02 0.0000000000e+00 0.0000e+00 1.0000e+00
       25  2    1    2    0    0 +8.8817841970e-16 -7.1054273576e-15 -1.3163644639e+02 1.8153034483e+02 1.2500044829e+02 0.0000e+00 0.0000e+00
  9000006  2    3    3    0    0 +7.2129889040e+00 +3.4346577276e+01 -1.8213100022e+01 5.6244391576e+01 3.9999999898e+01 0.0000e+00 0.0000e+00
  9000006  2    3    3    0    0 -7.2129889040e+00 -3.4346577276e+01 -1.1342334637e+02 1.2528595325e+02 3.9999999999e+01 0.0000e+00 0.0000e+00
      -11  1    5    5    0    0 -7.5213364087e+00 +5.4099327957e+00 -6.8033897954e+00 1.1494519865e+01 0.0000000000e+00 0.0000e+00 1.0000e+00
       13  1    4    4    0    0 -3.9869669986e+00 +5.2044682908e+00 +1.1440484186e+01 1.3185866466e+01 0.0000000000e+00 0.0000e+00 1.0000e+00
      -11  1    4    4    0    0 +1.1199955903e+01 +2.9142108985e+01 -2.9653584208e+01 4.3058525111e+01 0.0000000000e+00 0.0000e+00 1.0000e+00
       13  1    5    5    0    0 +3.0834750477e-01 -3.9756510072e+01 -1.0661995658e+02 1.1379143338e+02 0.0000000000e+00 0.0000e+00 1.0000e+00
<mgrwt>
<rscale>  0 0.12500045E+03</rscale>
<asrwt>0</asrwt>
<pdfrwt beam="1">  1       21 0.62367374E-02 0.12500045E+03</pdfrwt>
<pdfrwt beam="2">  1       21 0.39145848E-01 0.12500045E+03</pdfrwt>
<totfact> 0.11607163E+06</totfact>
</mgrwt>
</event>
<event>
 9      1 +9.5563000e+06 1.24994500e+02 7.81860800e-03 1.23507800e-01
       21 -1    0    0  502  501 +0.0000000000e+00 +0.0000000000e+00 +2.8936666083e+02 2.8936666083e+02 0.0000000000e+00 0.0000e+00 1.0000e+00
       21 -1    0    0  501  502 -0.0000000000e+00 -0.0000000000e+00 -1.3498131929e+01 1.3498131929e+01 0.0000000000e+00 0.0000e+00 1.0000e+00
       25  2    1    2    0    0 +2.6645352591e-15 -7.1054273576e-15 +2.7586852890e+02 3.0286479276e+02 1.2499454970e+02 0.0000e+00 0.0000e+00
  9000006  2    3    3    0    0 -5.2981411084e+00 -3.3277950906e+01 +5.5039322134e+01 7.5926407132e+01 4.0000000041e+01 0.0000e+00 0.0000e+00
  9000006  2    3    3    0    0 +5.2981411084e+00 +3.3277950906e+01 +2.2082920677e+02 2.2693838562e+02 3.9999999921e+01 0.0000e+00 0.0000e+00
      -11  1    4    4    0    0 -8.7437604501e+00 -3.2538815687e+01 +6.0603690077e+01 6.9339996568e+01 0.0000000000e+00 0.0000e+00 1.0000e+00
       13  1    4    4    0    0 +3.4456193417e+00 -7.3913521982e-01 -5.5643679425e+00 6.5864105643e+00 0.0000000000e+00 0.0000e+00 1.0000e+00
      -11  1    5    5    0    0 -1.4395949831e+01 +9.6458686326e-01 +6.4552981272e+01 6.6145757161e+01 0.0000000000e+00 0.0000e+00 1.0000e+00
       13  1    5    5    0    0 +1.9694090940e+01 +3.2313364043e+01 +1.5627622549e+02 1.6079262846e+02 0.0000000000e+00 0.0000e+00 1.0000e+00
<mgrwt>
<rscale>  0 0.12499455E+03</rscale>
<asrwt>0</asrwt>
<pdfrwt beam="1">  1       21 0.72341645E-01 0.12499455E+03</pdfrwt>
<pdfrwt beam="2">  1       21 0.33745339E-02 0.12499455E+03</pdfrwt>
<totfact> 0.90076276E+05</totfact>
</mgrwt>
</event>
<event>
 9      1 +9.5563000e+06 1.24969500e+02 7.81860800e-03 1.23511700e-01
       21 -1    0    0  502  501 +0.0000000000e+00 +0.0000000000e+00 +5.4019973261e+00 5.4019973261e+00 0.0000000000e+00 0.0000e+00 1.0000e+00
       21 -1    0    0  501  502 -0.0000000000e+00 -0.0000000000e+00 -7.2275952198e+02 7.2275952198e+02 0.0000000000e+00 0.0000e+00 1.0000e+00
       25  2    1    2    0    0 +0.0000000000e+00 +0.0000000000e+00 -7.1735752466e+02 7.2816151931e+02 1.2496951637e+02 0.0000e+00 0.0000e+00
  9000006  2    3    3    0    0 -3.3923175793e+01 +3.3175057866e+01 -4.0108934605e+02 4.0586208227e+02 3.9999999885e+01 0.0000e+00 0.0000e+00
  9000006  2    3    3    0    0 +3.3923175793e+01 -3.3175057866e+01 -3.1626817861e+02 3.2229943704e+02 3.9999999936e+01 0.0000e+00 0.0000e+00
      -11  1    4    4    0    0 -1.1827052149e+01 -4.0201874574e+00 -1.8859712308e+02 1.8901035925e+02 0.0000000000e+00 0.0000e+00 1.0000e+00
       13  1    4    4    0    0 -2.2096123644e+01 +3.7195245324e+01 -2.1249222297e+02 2.1685172302e+02 0.0000000000e+00 0.0000e+00 1.0000e+00
      -11  1    5    5    0    0 +2.0552030002e+00 -2.8406056635e+01 -1.8225114348e+02 1.8446302397e+02 0.0000000000e+00 0.0000e+00 1.0000e+00
       13  1    5    5    0    0 +3.1867972793e+01 -4.7690012312e+00 -1.3401703513e+02 1.3783641307e+02 0.0000000000e+00 0.0000e+00 1.0000e+00
<mgrwt>
<rscale>  0 0.12496952E+03</rscale>
<asrwt>0</asrwt>
<pdfrwt beam="1">  1       21 0.13504995E-02 0.12496952E+03</pdfrwt>
<pdfrwt beam="2">  1       21 0.18068986E+00 0.12496952E+03</pdfrwt>
<totfact> 0.42842913E+05</totfact>
</mgrwt>
</event>
<event>
 9      1 +9.5563000e+06 1.25000300e+02 7.81860800e-03 1.23506900e-01
       21 -1    0    0  502  501 +0.0000000000e+00 +0.0000000000e+00 +1.5851860186e+01 1.5851860186e+01 0.0000000000e+00 0.0000e+00 1.0000e+00
       21 -1    0    0  501  502 -0.0000000000e+00 -0.0000000000e+00 -2.4642319742e+02 2.4642319742e+02 0.0000000000e+00 0.0000e+00 1.0000e+00
       25  2    1    2    0    0 +0.0000000000e+00 +0.0000000000e+00 -2.3057133723e+02 2.6227505760e+02 1.2500025715e+02 0.0000e+00 0.0000e+00
  9000006  2    3    3    0    0 -3.9697518961e+01 +2.6107426164e+01 -1.2993933565e+02 1.4401986554e+02 4.0000000084e+01 0.0000e+00 0.0000e+00
  9000006  2    3    3    0    0 +3.9697518961e+01 -2.6107426164e+01 -1.0063200158e+02 1.1825519206e+02 3.9999999954e+01 0.0000e+00 0.0000e+00
      -11  1    5    5    0    0 +3.0989235743e+01 -1.8166120581e+01 -1.0021931919e+02 1.0646244693e+02 0.0000000000e+00 0.0000e+00 1.0000e+00
       13  1    4    4    0    0 -2.8706964731e+01 +2.3297249034e+00 -3.3952505652e+01 4.4522916372e+01 0.0000000000e+00 0.0000e+00 1.0000e+00
      -11  1    4    4    0    0 -1.0990554230e+01 +2.3777701260e+01 -9.5986830002e+01 9.9496949166e+01 0.0000000000e+00 0.0000e+00 1.0000e+00
       13  1    5    5    0    0 +8.7082832181e+00 -7.9413055828e+00 -4.1268239014e-01 1.1792745131e+01 0.0000000000e+00 0.0000e+00 1.0000e+00
<mgrwt>
<rscale>  0 0.12500026E+03</rscale>
<asrwt>0</asrwt>
<pdfrwt beam="1">  1       21 0.39629650E-02 0.12500026E+03</pdfrwt>
<pdfrwt beam="2">  1       21 0.61605800E-01 0.12500026E+03</pdfrwt>
<totfact> 0.97713797E+05</totfact>
</mgrwt>
</event>
<event>
 9      1 +9.5563000e+06 1.24998500e+02 7.81860800e-03 1.23507200e-01
       21 -1    0    0  502  501 +0.0000000000e+00 +0.0000000000e+00 +3.0727784324e+01 3.0727784324e+01 0.0000000000e+00 0.0000e+00 -1.0000e+00
       21 -1    0    0  501  502 -0.0000000000e+00 -0.0000000000e+00 -1.2712126162e+02 1.2712126162e+02 0.0000000000e+00 0.0000e+00 -1.0000e+00
       25  2    1    2    0    0 +0.0000000000e+00 +3.5527136788e-15 -9.6393477297e+01 1.5784904595e+02 1.2499847535e+02 0.0000e+00 0.0000e+00
  9000006  2    3    3    0    0 +3.7777188594e+01 -2.5166448220e+01 -2.8402911085e+01 6.6837051186e+01 3.9999999489e+01 0.0000e+00 0.0000e+00
  9000006  2    3    3    0    0 -3.7777188594e+01 +2.5166448220e+01 -6.7990566212e+01 9.1011994759e+01 4.0000000027e+01 0.0000e+00 0.0000e+00
      -11  1    5    5    0    0 -2.9582369552e+01 +2.8245422810e+01 -2.6795449597e+01 4.8897000083e+01 0.0000000000e+00 0.0000e+00 1.0000e+00
       13  1    4    4    0    0 +1.1767645376e+01 +3.6924157920e-01 -2.8011791682e+01 3.0385428914e+01 0.0000000000e+00 0.0000e+00 1.0000e+00
      -11  1    4    4    0    0 +2.6009543218e+01 -2.5535689799e+01 -3.9111940278e-01 3.6451622272e+01 0.0000000000e+00 0.0000e+00 1.0000e+00
       13  1    5    5    0    0 -8.1948190421e+00 -3.0789745898e+00 -4.1195116615e+01 4.2114994676e+01 0.0000000000e+00 0.0000e+00 1.0000e+00
<mgrwt>
<rscale>  0 0.12499848E+03</rscale>
<asrwt>0</asrwt>
<pdfrwt beam="1">  1       21 0.76819461E-02 0.12499848E+03</pdfrwt>
<pdfrwt beam="2">  1       21 0.31780315E-01 0.12499848E+03</pdfrwt>
<totfact> 0.12245352E+06</totfact>
</mgrwt>
</event>
<event>
 9      1 +9.5563000e+06 1.24999100e+02 7.81860800e-03 1.23507100e-01
       21 -1    0    0  502  501 +0.0000000000e+00 +0.0000000000e+00 +2.3574532687e+01 2.3574532687e+01 0.0000000000e+00 0.0000e+00 1.0000e+00
       21 -1    0    0  501  502 -0.0000000000e+00 -0.0000000000e+00 -1.6569543186e+02 1.6569543186e+02 0.0000000000e+00 0.0000e+00 1.0000e+00
       25  2    1    2    0    0 +1.7763568394e-15 +7.1054273576e-15 -1.4212089917e+02 1.8926996455e+02 1.2499907799e+02 0.0000e+00 0.0000e+00
  9000006  2    3    3    0    0 -1.4060402772e+01 +4.3333186961e+01 -9.4060518695e+01 1.1190550120e+02 4.0000000052e+01 0.0000e+00 0.0000e+00
  9000006  2    3    3    0    0 +1.4060402772e+01 -4.3333186961e+01 -4.8060380476e+01 7.7364463342e+01 3.9999999980e+01 0.0000e+00 0.0000e+00
      -11  1    5    5    0    0 +2.2398464194e+01 -1.9230024550e+01 -4.1677155308e+01 5.1073185890e+01 0.0000000000e+00 0.0000e+00 1.0000e+00
       13  1    4    4    0    0 +1.0141875135e+01 +2.9433542409e+01 -6.2153432708e+01 6.9514316852e+01 0.0000000000e+00 0.0000e+00 1.0000e+00
      -11  1    4    4    0    0 -2.4202277907e+01 +1.3899644553e+01 -3.1907085986e+01 4.2391184352e+01 0.0000000000e+00 0.0000e+00 1.0000e+00
       13  1    5    5    0    0 -8.3380614224e+00 -2.4103162411e+01 -6.3832251684e+00 2.6291277452e+01 0.0000000000e+00 0.0000e+00 1.0000e+00
<mgrwt>
<rscale>  0 0.12499908E+03</rscale>
<asrwt>0</asrwt>
<pdfrwt beam="1">  1       21 0.58936333E-02 0.12499908E+03</pdfrwt>
<pdfrwt beam="2">  1       21 0.41423857E-01 0.12499908E+03</pdfrwt>
<totfact> 0.11409618E+06</totfact>
</mgrwt>
</event>
<event>
 9      1 +9.5563000e+06 1.25002400e+02 7.81860800e-03 1.23506600e-01
       21 -1    0    0  502  501 +0.0000000000e+00 +0.0000000000e+00 +5.3012970652e+02 5.3012970652e+02 0.0000000000e+00 0.0000e+00 -1.0000e+00
       21 -1    0    0  501  502 -0.0000000000e+00 -0.0000000000e+00 -7.3687626611e+00 7.3687626611e+00 0.0000000000e+00 0.0000e+00 -1.0000e+00
       25  2    1    2    0    0 +0.0000000000e+00 +0.0000000000e+00 +5.2276094386e+02 5.3749846918e+02 1.2500239977e+02 0.0000e+00 0.0000e+00
  9000006  2    3    3    0    0 -2.6842818185e+01 +1.1428755342e+01 +9.7348998827e+01 1.0921529614e+02 4.0000000009e+01 0.0000e+00 0.0000e+00
  9000006  2    3    3    0    0 +2.6842818185e+01 -1.1428755342e+01 +4.2541194503e+02 4.2828317305e+02 4.0000000008e+01 0.0000e+00 0.0000e+00
      -11  1    5    5    0    0 +2.7539087478e+01 -1.2578834772e+01 +1.5837751192e+02 1.6124535560e+02 0.0000000000e+00 0.0000e+00 1.0000e+00
       13  1    4    4    0    0 -1.8443723861e+00 +1.2827557735e+01 +7.3511219327e+01 7.4644807682e+01 0.0000000000e+00 0.0000e+00 1.0000e+00
      -11  1    4    4    0    0 -2.4998445799e+01 -1.3988023926e+00 +2.3837779500e+01 3.4570488454e+01 0.0000000000e+00 0.0000e+00 1.0000e+00
       13  1    5    5    0    0 -6.9626929373e-01 +1.1500794298e+00 +2.6703443312e+02 2.6703781744e+02 0.0000000000e+00 0.0000e+00 1.0000e+00
<mgrwt>
<rscale>  0 0.12500240E+03</rscale>
<asrwt>0</asrwt>
<pdfrwt beam="1">  1       21 0.13253230E+00 0.12500240E+03</pdfrwt>
<pdfrwt beam="2">  1       21 0.18421925E-02 0.12500240E+03</pdfrwt>
<totfact> 0.58753007E+05</totfact>
</mgrwt>
</event>
<event>
 9      1 +9.5563000e+06 1.25001200e+02 7.81860800e-03 1.23506700e-01
       21 -1    0    0  502  501 +0.0000000000e+00 +0.0000000000e+00 +8.2869738958e+01 8.2869738958e+01 0.0000000000e+00 0.0000e+00 1.0000e+00
       21 -1    0    0  501  502 -0.0000000000e+00 -0.0000000000e+00 -4.7138149229e+01 4.7138149229e+01 0.0000000000e+00 0.0000e+00 1.0000e+00
       25  2    1    2    0    0 +0.0000000000e+00 +0.0000000000e+00 +3.5731589729e+01 1.3000788819e+02 1.2500121794e+02 0.0000e+00 0.0000e+00
  9000006  2    3    3    0    0 -5.0814726547e+00 +4.1642661343e+01 +4.2177097294e+01 7.1685703893e+01 3.9999999982e+01 0.0000e+00 0.0000e+00
  9000006  2    3    3    0    0 +5.0814726547e+00 -4.1642661343e+01 -6.4455075646e+00 5.8322184294e+01 4.0000000063e+01 0.0000e+00 0.0000e+00
      -11  1    5    5    0    0 +1.3859873249e+01 -1.8952048343e+01 -1.9670907540e+01 3.0630390567e+01 0.0000000000e+00 0.0000e+00 1.0000e+00
       13  1    4    4    0    0 -6.9724283139e+00 +2.4244955740e+01 +4.7165478160e+01 5.3488456376e+01 0.0000000000e+00 0.0000e+00 1.0000e+00
      -11  1    4    4    0    0 +1.8909556592e+00 +1.7397705603e+01 -4.9883808664e+00 1.8197247517e+01 0.0000000000e+00 0.0000e+00 1.0000e+00
       13  1    5    5    0    0 -8.7784005940e+00 -2.2690613000e+01 +1.3225399975e+01 2.7691793727e+01 0.0000000000e+00 0.0000e+00 1.0000e+00
<mgrwt>
<rscale>  0 0.12500122E+03</rscale>
<asrwt>0</asrwt>
<pdfrwt beam="1">  1       21 0.20717434E-01 0.12500122E+03</pdfrwt>
<pdfrwt beam="2">  1       21 0.11784537E-01 0.12500122E+03</pdfrwt>
<totfact> 0.13068983E+06</totfact>
</mgrwt>
</event>
<event>
 9      1 +9.5563000e+06 1.24999200e+02 7.81860800e-03 1.23507100e-01
       21 -1    0    0  502  501 +0.0000000000e+00 +0.0000000000e+00 +3.0407492954e+01 3.0407492954e+01 0.0000000000e+00 0.0000e+00 -1.0000e+00
       21 -1    0    0  501  502 -0.0000000000e+00 -0.0000000000e+00 -1.2846177370e+02 1.2846177370e+02 0.0000000000e+00 0.0000e+00 -1.0000e+00
       25  2    1    2    0    0 +0.0000000000e+00 +1.7763568394e-15 -9.8054280750e+01 1.5886926666e+02 1.2499920766e+02 0.0000e+00 0.0000e+00
  9000006  2    3    3    0    0 -4.2172555453e+01 +9.7770956092e+00 -2.2608105817e+01 6.3128777077e+01 4.0000000183e+01 0.0000e+00 0.0000e+00
  9000006  2    3    3    0    0 +4.2172555453e+01 -9.7770956092e+00 -7.5446174933e+01 9.5740489581e+01 4.0000000015e+01 0.0000e+00 0.0000e+00
      -11  1    4    4    0    0 -3.3327938626e+01 +2.0283599074e+01 -2.9204245902e+00 3.9124222219e+01 0.0000000000e+00 0.0000e+00 1.0000e+00
       13  1    4    4    0    0 -8.8446168274e+00 -1.0506503465e+01 -1.9687681227e+01 2.4004554859e+01 0.0000000000e+00 0.0000e+00 1.0000e+00
      -11  1    5    5    0    0 +1.8149063081e+01 -8.9229446488e+00 -6.7434574264e+01 7.0401912176e+01 0.0000000000e+00 0.0000e+00 1.0000e+00
       13  1    5    5    0    0 +2.4023492372e+01 -8.5415096041e-01 -8.0116006690e+00 2.5338577405e+01 0.0000000000e+00 0.0000e+00 1.0000e+00
<mgrwt>
<rscale>  0 0.12499921E+03</rscale>
<asrwt>0</asrwt>
<pdfrwt beam="1">  1       21 0.76018733E-02 0.12499921E+03</pdfrwt>
<pdfrwt beam="2">  1       21 0.32115443E-01 0.12499921E+03</pdfrwt>
<totfact> 0.12216455E+06</totfact>
</mgrwt>
</event>
<event>
 9      1 +9.5563000e+06 1.25003400e+02 7.81860800e-03 1.23506400e-01
       21 -1    0    0  502  501 +0.0000000000e+00 +0.0000000000e+00 +1.3605429422e+02 1.3605429422e+02 0.0000000000e+00 0.0000e+00 1.0000e+00
       21 -1    0    0  501  502 -0.0000000000e+00 -0.0000000000e+00 -2.8712526702e+01 2.8712526702e+01 0.0000000000e+00 0.0000e+00 1.0000e+00
       25  2    1    2    0    0 -7.1054273576e-15 -3.5527136788e-15 +1.0734176752e+02 1.6476682093e+02 1.2500340085e+02 0.0000e+00 0.0000e+00
  9000006  2    3    3    0    0 -3.5689253264e+01 -3.0470477812e+01 +4.0210150379e+01 7.3614054463e+01 4.0000000054e+01 0.0000e+00 0.0000e+00
  9000006  2    3    3    0    0 +3.5689253264e+01 +3.0470477812e+01 +6.7131617142e+01 9.1152766463e+01 3.9999999964e+01 0.0000e+00 0.0000e+00
      -11  1    4    4    0    0 -3.5097132980e+01 -9.6793822414e+00 +3.8115228114e+01 5.2709295178e+01 0.0000000000e+00 0.0000e+00 1.0000e+00
       13  1    4    4    0    0 -5.9212028411e-01 -2.0791095571e+01 +2.0949222654e+00 2.0904759285e+01 0.0000000000e+00 0.0000e+00 1.0000e+00
      -11  1    5    5    0    0 -7.5370279819e+00 +2.7678822937e+00 +2.1040337945e+00 8.3002964646e+00 0.0000000000e+00 0.0000e+00 1.0000e+00
       13  1    5    5    0    0 +4.3226281246e+01 +2.7702595519e+01 +6.5027583348e+01 8.2852469999e+01 0.0000000000e+00 0.0000e+00 1.0000e+00
<mgrwt>
<rscale>  0 0.12500340E+03</rscale>
<asrwt>0</asrwt>
<pdfrwt beam="1">  1       21 0.34013572E-01 0.12500340E+03</pdfrwt>
<pdfrwt beam="2">  1       21 0.71781320E-02 0.12500340E+03</pdfrwt>
<totfact> 0.12051653E+06</totfact>
</mgrwt>
</event>
<event>
 9      1 +9.5563000e+06 1.25000400e+02 7.81860800e-03 1.23506900e-01
       21 -1    0    0  502  501 +0.0000000000e+00 +0.0000000000e+00 +1.7507823661e+02 1.7507823661e+02 0.0000000000e+00 0.0000e+00 -1.0000e+00
       21 -1    0    0  501  502 -0.0000000000e+00 -0.0000000000e+00 -2.2311609094e+01 2.2311609094e+01 0.0000000000e+00 0.0000e+00 -1.0000e+00
       25  2    1    2    0    0 +0.0000000000e+00 +0.0000000000e+00 +1.5276662752e+02 1.9738984570e+02 1.2500043482e+02 0.0000e+00 0.0000e+00
  9000006  2    3    3    0    0 -8.6471273331e+00 +4.2609045511e+01 +4.4176618012e+01 7.3769079914e+01 4.0000000024e+01 0.0000e+00 0.0000e+00
  9000006  2    3    3    0    0 +8.6471273331e+00 -4.2609045511e+01 +1.0859000950e+02 1.2362076579e+02 3.9999999997e+01 0.0000e+00 0.0000e+00
      -11  1    5    5    0    0 +1.6145575744e+01 -7.5282417811e+00 +1.4651260020e+01 2.3065416983e+01 0.0000000000e+00 0.0000e+00 1.0000e+00
       13  1    4    4    0    0 -1.3815047568e+01 -7.3425830970e-01 +1.8588338583e+01 2.3171555965e+01 0.0000000000e+00 0.0000e+00 1.0000e+00
      -11  1    4    4    0    0 +5.1679202349e+00 +4.3343303821e+01 +2.5588279429e+01 5.0597523950e+01 0.0000000000e+00 0.0000e+00 1.0000e+00
       13  1    5    5    0    0 -7.4984484110e+00 -3.5080803730e+01 +9.3938749484e+01 1.0055534881e+02 0.0000000000e+00 0.0000e+00 1.0000e+00
<mgrwt>
<rscale>  0 0.12500043E+03</rscale>
<asrwt>0</asrwt>
<pdfrwt beam="1">  1       21 0.43769555E-01 0.12500043E+03</pdfrwt>
<pdfrwt beam="2">  1       21 0.55779028E-02 0.12500043E+03</pdfrwt>
<totfact> 0.11206963E+06</totfact>
</mgrwt>
</event>
<event>
 9      1 +9.5563000e+06 1.25011300e+02 7.81860800e-03 1.23505200e-01
       21 -1    0    0  502  501 +0.0000000000e+00 +0.0000000000e+00 +1.7554284268e+03 1.7554284268e+03 0.0000000000e+00 0.0000e+00 -1.0000e+00
       21 -1    0    0  501  502 -0.0000000000e+00 -0.0000000000e+00 -2.2256418704e+00 2.2256418704e+00 0.0000000000e+00 0.0000e+00 -1.0000e+00
       25  2    1    2    0    0 -7.1054273576e-15 +0.0000000000e+00 +1.7532027849e+03 1.7576540687e+03 1.2501127961e+02 0.0000e+00 0.0000e+00
  9000006  2    3    3    0    0 +2.7546653824e+01 -2.3170918375e+01 +1.3237094362e+03 1.3248027707e+03 3.9999999999e+01 0.0000e+00 0.0000e+00
  9000006  2    3    3    0    0 -2.7546653824e+01 +2.3170918375e+01 +4.2949334867e+02 4.3285129798e+02 4.0000000164e+01 0.0000e+00 0.0000e+00
      -11  1    5    5    0    0 +4.2569027228e-01 +2.4321376798e+01 +1.5003241169e+02 1.5199156272e+02 0.0000000000e+00 0.0000e+00 1.0000e+00
       13  1    4    4    0    0 +3.7036531391e+00 -5.2081121506e+00 +9.0814911857e+02 9.0817160440e+02 0.0000000000e+00 0.0000e+00 1.0000e+00
      -11  1    4    4    0    0 +2.3843000685e+01 -1.7962806224e+01 +4.1556031767e+02 4.1663116627e+02 0.0000000000e+00 0.0000e+00 1.0000e+00
       13  1    5    5    0    0 -2.7972344096e+01 -1.1504584236e+00 +2.7946093698e+02 2.8085973526e+02 0.0000000000e+00 0.0000e+00 1.0000e+00
<mgrwt>
<rscale>  0 0.12501128E+03</rscale>
<asrwt>0</asrwt>
<pdfrwt beam="1">  1       21 0.43885235E+00 0.12501128E+03</pdfrwt>
<pdfrwt beam="2">  1       21 0.55641649E-03 0.12501128E+03</pdfrwt>
<totfact> 0.51174366E+04</totfact>
</mgrwt>
</event>
<event>
 8      1 +9.5563000e+06 1.25000900e+02 7.81860800e-03 1.23506800e-01
       21 -1    0    0  502  501 +0.0000000000e+00 +0.0000000000e+00 +9.0369966722e+00 9.0369966722e+00 0.0000000000e+00 0.0000e+00 -1.0000e+00
       21 -1    0    0  501  502 -0.0000000000e+00 -0.0000000000e+00 -4.3225714238e+02 4.3225714238e+02 0.0000000000e+00 0.0000e+00 -1.0000e+00
       25  2    1    2    0    0 +0.0000000000e+00 +0.0000000000e+00 -4.2322014570e+02 4.4129413905e+02 1.2500090171e+02 0.0000e+00 0.0000e+00
  9000006  2    3    3    0    0 -2.8225077286e+01 +3.2546943872e+01 -1.3669156716e+02 1.4879698609e+02 3.9999999913e+01 0.0000e+00 0.0000e+00
      -11  1    3    3    0    0 +3.7811029266e+01 -3.0241428436e+01 -2.2188869184e+02 2.2710968604e+02 0.0000000000e+00 0.0000e+00 1.0000e+00
       13  1    3    3    0    0 -9.5859519804e+00 -2.3055154359e+00 -6.4639886704e+01 6.5387466918e+01 0.0000000000e+00 0.0000e+00 1.0000e+00
      -11  1    4    4    0    0 -1.0381982571e+00 -7.3899604542e+00 -6.3804730368e+00 9.8183403541e+00 0.0000000000e+00 0.0000e+00 1.0000e+00
       13  1    4    4    0    0 -2.7186879029e+01 +3.9936904326e+01 -1.3031109412e+02 1.3897864573e+02 0.0000000000e+00 0.0000e+00 1.0000e+00
<mgrwt>
<rscale>  0 0.12500090E+03</rscale>
<asrwt>0</asrwt>
<pdfrwt beam="1">  1       21 0.22592492E-02 0.12500090E+03</pdfrwt>
<pdfrwt beam="2">  1       21 0.10806429E+00 0.12500090E+03</pdfrwt>
<totfact> 0.69471102E+05</totfact>
</mgrwt>
</event>
<event>
 9      1 +9.5563000e+06 1.25006700e+02 7.81860800e-03 1.23505900e-01
       21 -1    0    0  502  501 +0.0000000000e+00 +0.0000000000e+00 +2.0620170698e+02 2.0620170698e+02 0.0000000000e+00 0.0000e+00 -1.0000e+00
       21 -1    0    0  501  502 -0.0000000000e+00 -0.0000000000e+00 -1.8945846238e+01 1.8945846238e+01 0.0000000000e+00 0.0000e+00 -1.0000e+00
       25  2    1    2    0    0 -4.4408920985e-16 +0.0000000000e+00 +1.8725586074e+02 2.2514755321e+02 1.2500665317e+02 0.0000e+00 0.0000e+00
  9000006  2    3    3    0    0 -6.3689423647e-02 +3.8009872385e+01 +4.0751100380e+01 6.8595966638e+01 4.0000000023e+01 0.0000e+00 0.0000e+00
  9000006  2    3    3    0    0 +6.3689423647e-02 -3.8009872385e+01 +1.4650476036e+02 1.5655158658e+02 3.9999999957e+01 0.0000e+00 0.0000e+00
      -11  1    5    5    0    0 -2.3987257002e+00 -4.6229676006e+01 +1.1702036150e+02 1.2584395828e+02 0.0000000000e+00 0.0000e+00 1.0000e+00
       13  1    4    4    0    0 -4.2727125049e+00 +2.3921758230e+00 +3.1060780168e+01 3.1444405575e+01 0.0000000000e+00 0.0000e+00 1.0000e+00
      -11  1    4    4    0    0 +4.2090230812e+00 +3.5617696562e+01 +9.6903202117e+00 3.7151561063e+01 0.0000000000e+00 0.0000e+00 1.0000e+00
       13  1    5    5    0    0 +2.4624151238e+00 +8.2198036217e+00 +2.9484398855e+01 3.0707628298e+01 0.0000000000e+00 0.0000e+00 1.0000e+00
<mgrwt>
<rscale>  0 0.12500665E+03</rscale>
<asrwt>0</asrwt>
<pdfrwt beam="1">  1       21 0.51550420E-01 0.12500665E+03</pdfrwt>
<pdfrwt beam="2">  1       21 0.47364622E-02 0.12500665E+03</pdfrwt>
<totfact> 0.10554727E+06</totfact>
</mgrwt>
</event>
<event>
 9      1 +9.5563000e+06 1.25000800e+02 7.81860800e-03 1.23506800e-01
       21 -1    0    0  502  501 +0.0000000000e+00 +0.0000000000e+00 +3.8050117707e+02 3.8050117707e+02 0.0000000000e+00 0.0000e+00 -1.0000e+00
       21 -1    0    0  501  502 -0.0000000000e+00 -0.0000000000e+00 -1.0266202156e+01 1.0266202156e+01 0.0000000000e+00 0.0000e+00 -1.0000e+00
       25  2    1    2    0    0 -1.7763568394e-15 +0.0000000000e+00 +3.7023497491e+02 3.9076737922e+02 1.2500083207e+02 0.0000e+00 0.0000e+00
  9000006  2    3    3    0    0 -6.2757370922e+00 +3.2574442223e+01 +7.6563157109e+01 9.2533216634e+01 3.9999999898e+01 0.0000e+00 0.0000e+00
  9000006  2    3    3    0    0 +6.2757370922e+00 -3.2574442223e+01 +2.9367181780e+02 2.9823416259e+02 4.0000000033e+01 0.0000e+00 0.0000e+00
      -11  1    5    5    0    0 +2.2251365259e+01 -2.5771563081e+01 +1.7291283097e+02 1.7623320866e+02 0.0000000000e+00 0.0000e+00 1.0000e+00
       13  1    4    4    0    0 -1.2858094808e+01 -1.8568240812e+00 +3.9214830889e+01 4.1310789867e+01 0.0000000000e+00 0.0000e+00 1.0000e+00
      -11  1    4    4    0    0 +6.5823577159e+00 +3.4431266304e+01 +3.7348326220e+01 5.1222426767e+01 0.0000000000e+00 0.0000e+00 1.0000e+00
       13  1    5    5    0    0 -1.5975628166e+01 -6.8028791420e+00 +1.2075898683e+02 1.2200095393e+02 0.0000000000e+00 0.0000e+00 1.0000e+00
<mgrwt>
<rscale>  0 0.12500083E+03</rscale>
<asrwt>0</asrwt>
<pdfrwt beam="1">  1       21 0.95125247E-01 0.12500083E+03</pdfrwt>
<pdfrwt beam="2">  1       21 0.25665518E-02 0.12500083E+03</pdfrwt>
<totfact> 0.76184142E+05</totfact>
</mgrwt>
</event>
<event>
 9      1 +9.5563000e+06 1.24999500e+02 7.81860800e-03 1.23507000e-01
       21 -1    0    0  502  501 +0.0000000000e+00 +0.0000000000e+00 +9.7843855575e+01 9.7843855575e+01 0.0000000000e+00 0.0000e+00 1.0000e+00
       21 -1    0    0  501  502 -0.0000000000e+00 -0.0000000000e+00 -3.9922964932e+01 3.9922964932e+01 0.0000000000e+00 0.0000e+00 1.0000e+00
       25  2    1    2    0    0 -3.5527136788e-15 +0.0000000000e+00 +5.7920890643e+01 1.3776682051e+02 1.2499946904e+02 0.0000e+00 0.0000e+00
  9000006  2    3    3    0    0 -7.8018968708e+00 -4.7115981819e+01 +3.4518493636e+01 7.1220163750e+01 3.9999999803e+01 0.0000e+00 0.0000e+00
  9000006  2    3    3    0    0 +7.8018968708e+00 +4.7115981819e+01 +2.3402397007e+01 6.6546656756e+01 4.0000000028e+01 0.0000e+00 0.0000e+00
      -11  1    4    4    0    0 +1.0409127500e+01 -3.2709285984e+00 -2.2868268861e+00 1.1148026122e+01 0.0000000000e+00 0.0000e+00 1.0000e+00
       13  1    4    4    0    0 -1.8211024371e+01 -4.3845053220e+01 +3.6805320522e+01 6.0072137628e+01 0.0000000000e+00 0.0000e+00 1.0000e+00
      -11  1    5    5    0    0 -4.2316676089e-02 +8.0358832693e+00 +2.5396175828e+01 2.6637247555e+01 0.0000000000e+00 0.0000e+00 1.0000e+00
       13  1    5    5    0    0 +7.8442135469e+00 +3.9080098549e+01 -1.9937788214e+00 3.9909409201e+01 0.0000000000e+00 0.0000e+00 1.0000e+00
<mgrwt>
<rscale>  0 0.12499947E+03</rscale>
<asrwt>0</asrwt>
<pdfrwt beam="1">  1       21 0.24460963E-01 0.12499947E+03</pdfrwt>
<pdfrwt beam="2">  1       21 0.99807414E-02 0.12499947E+03</pdfrwt>
<totfact> 0.12831123E+06</totfact>
</mgrwt>
</event>
<event>
 9      1 +9.5563000e+06 1.24994600e+02 7.81860800e-03 1.23507800e-01
       21 -1    0    0  502  501 +0.0000000000e+00 +0.0000000000e+00 +1.6083244775e+01 1.6083244775e+01 0.0000000000e+00 0.0000e+00 1.0000e+00
       21 -1    0    0  501  502 -0.0000000000e+00 -0.0000000000e+00 -2.4285602079e+02 2.4285602079e+02 0.0000000000e+00 0.0000e+00 1.0000e+00
       25  2    1    2    0    0 -1.4210854715e-14 -1.1102230246e-15 -2.2677277601e+02 2.5893926556e+02 1.2499460512e+02 0.0000e+00 0.0000e+00
  9000006  2    3    3    0    0 +4.6070997675e+01 -1.2790432631e+00 -1.4131387946e+02 1.5392785742e+02 3.9999999776e+01 0.0000e+00 0.0000e+00
  9000006  2    3    3    0    0 -4.6070997675e+01 +1.2790432631e+00 -8.5458896552e+01 1.0501140815e+02 4.0000000785e+01 0.0000e+00 0.0000e+00
      -11  1    5    5    0    0 -8.2325832201e+00 +1.6713829440e+00 -5.7123280010e+01 5.7737665925e+01 0.0000000000e+00 0.0000e+00 1.0000e+00
       13  1    4    4    0    0 +1.4207018530e+01 +8.6317845440e+00 -1.2329828070e+01 2.0697143285e+01 0.0000000000e+00 0.0000e+00 1.0000e+00
      -11  1    4    4    0    0 +3.1863979145e+01 -9.9108278071e+00 -1.2898405139e+02 1.3323071413e+02 0.0000000000e+00 0.0000e+00 1.0000e+00
       13  1    5    5    0    0 -3.7838414455e+01 -3.9233968086e-01 -2.8335616542e+01 4.7273742222e+01 0.0000000000e+00 0.0000e+00 1.0000e+00
<mgrwt>
<rscale>  0 0.12499461E+03</rscale>
<asrwt>0</asrwt>
<pdfrwt beam="1">  1       21 0.40208111E-02 0.12499461E+03</pdfrwt>
<pdfrwt beam="2">  1       21 0.60714006E-01 0.12499461E+03</pdfrwt>
<totfact> 0.98399206E+05</totfact>
</mgrwt>
</event>
<event>
 9      1 +9.5563000e+06 1.24996800e+02 7.81860800e-03 1.23507400e-01
       21 -1    0    0  502  501 +0.0000000000e+00 +0.0000000000e+00 +8.2855452266e+00 8.2855452266e+00 0.0000000000e+00 0.0000e+00 -1.0000e+00
       21 -1    0    0  501  502 -0.0000000000e+00 -0.0000000000e+00 -4.7142951269e+02 4.7142951269e+02 0.0000000000e+00 0.0000e+00 -1.0000e+00
       25  2    1    2    0    0 +0.0000000000e+00 +7.1054273576e-15 -4.6314396746e+02 4.7971505792e+02 1.2499680874e+02 0.0000e+00 0.0000e+00
  9000006  2    3    3    0    0 +3.4492212313e+01 +3.3334437041e+01 -2.4028404413e+02 2.4826864334e+02 3.9999999980e+01 0.0000e+00 0.0000e+00
  9000006  2    3    3    0    0 -3.4492212313e+01 -3.3334437041e+01 -2.2285992333e+02 2.3144641458e+02 3.9999999876e+01 0.0000e+00 0.0000e+00
      -11  1    5    5    0    0 +2.4796257013e+00 +6.8669999374e+00 -1.7841082166e+01 1.9277148249e+01 0.0000000000e+00 0.0000e+00 1.0000e+00
       13  1    4    4    0    0 +2.6850260742e+01 +4.7901264312e+00 -1.6764624332e+02 1.6985035976e+02 0.0000000000e+00 0.0000e+00 1.0000e+00
      -11  1    4    4    0    0 +7.6419515702e+00 +2.8544310609e+01 -7.2637800812e+01 7.8418283575e+01 0.0000000000e+00 0.0000e+00 1.0000e+00
       13  1    5    5    0    0 -3.6971838014e+01 -4.0201436978e+01 -2.0501884117e+02 2.1216926633e+02 0.0000000000e+00 0.0000e+00 1.0000e+00
<mgrwt>
<rscale>  0 0.12499681E+03</rscale>
<asrwt>0</asrwt>
<pdfrwt beam="1">  1       21 0.20713864E-02 0.12499681E+03</pdfrwt>
<pdfrwt beam="2">  1       21 0.11785738E+00 0.12499681E+03</pdfrwt>
<totfact> 0.64941245E+05</totfact>
</mgrwt>
</event>
<event>
 9      1 +9.5563000e+06 1.24999800e+02 7.81860800e-03 1.23507000e-01
       21 -1    0    0  502  501 +0.0000000000e+00 +0.0000000000e+00 +2.2355845397e+02 2.2355845397e+02 0.0000000000e+00 0.0000e+00 -1.0000e+00
       21 -1    0    0  501  502 -0.0000000000e+00 -0.0000000000e+00 -1.7473013931e+01 1.7473013931e+01 0.0000000000e+00 0.0000e+00 -1.0000e+00
       25  2    1    2    0    0 -3.5527136788e-15 +0.0000000000e+00 +2.0608544004e+02 2.4103146790e+02 1.2499983969e+02 0.0000e+00 0.0000e+00
  9000006  2    3    3    0    0 -1.4773166849e+01 +4.4542424079e+01 +8.3381524938e+01 1.0370512380e+02 4.0000000003e+01 0.0000e+00 0.0000e+00
  9000006  2    3    3    0    0 +1.4773166849e+01 -4.4542424079e+01 +1.2270391510e+02 1.3732634410e+02 4.0000000009e+01 0.0000e+00 0.0000e+00
      -11  1    5    5    0    0 -1.0372637927e+01 -3.0474842884e+01 +7.4662916792e+01 8.1307187937e+01 0.0000000000e+00 0.0000e+00 1.0000e+00
       13  1    4    4    0    0 +2.9234621218e+00 +6.8752578015e+00 -2.8181561598e+00 7.9848484491e+00 0.0000000000e+00 0.0000e+00 1.0000e+00
      -11  1    4    4    0    0 -1.7696628971e+01 +3.7667166278e+01 +8.6199681097e+01 9.5720275353e+01 0.0000000000e+00 0.0000e+00 1.0000e+00
       13  1    5    5    0    0 +2.5145804776e+01 -1.4067581195e+01 +4.8040998312e+01 5.6019156164e+01 0.0000000000e+00 0.0000e+00 1.0000e+00
<mgrwt>
<rscale>  0 0.12499984E+03</rscale>
<asrwt>0</asrwt>
<pdfrwt beam="1">  1       21 0.55889605E-01 0.12499984E+03</pdfrwt>
<pdfrwt beam="2">  1       21 0.43682542E-02 0.12499984E+03</pdfrwt>
<totfact> 0.10210208E+06</totfact>
</mgrwt>
</event>
<event>
 9      1 +9.5563000e+06 1.25004100e+02 7.81860800e-03 1.23506300e-01
       21 -1    0    0  502  501 +0.0000000000e+00 +0.0000000000e+00 +5.2700175094e+02 5.2700175094e+02 0.0000000000e+00 0.0000e+00 1.0000e+00
       21 -1    0    0  501  502 -0.0000000000e+00 -0.0000000000e+00 -7.4126963868e+00 7.4126963868e+00 0.0000000000e+00 0.0000e+00 1.0000e+00
       25  2    1    2    0    0 -7.1054273576e-15 +0.0000000000e+00 +5.1958905455e+02 5.3441444733e+02 1.2500406353e+02 0.0000e+00 0.0000e+00
  9000006  2    3    3    0    0 +4.4912130050e+01 +2.2103189872e+00 +3.3190688913e+02 3.3731908927e+02 4.0000000007e+01 0.0000e+00 0.0000e+00
  9000006  2    3    3    0    0 -4.4912130050e+01 -2.2103189872e+00 +1.8768216542e+02 1.9709535805e+02 4.0000000157e+01 0.0000e+00 0.0000e+00
      -11  1    4    4    0    0 +4.2680815223e+01 -1.0172663246e+01 +1.9701461019e+02 2.0184125370e+02 0.0000000000e+00 0.0000e+00 1.0000e+00
       13  1    4    4    0    0 +2.2313148273e+00 +1.2382982233e+01 +1.3489227894e+02 1.3547783558e+02 0.0000000000e+00 0.0000e+00 1.0000e+00
      -11  1    5    5    0    0 -1.2282549775e+00 +9.7662340033e+00 +7.5106385772e+01 7.5748644348e+01 0.0000000000e+00 0.0000e+00 1.0000e+00
       13  1    5    5    0    0 -4.3683875073e+01 -1.1976552990e+01 +1.1257577965e+02 1.2134671370e+02 0.0000000000e+00 0.0000e+00 1.0000e+00
<mgrwt>
<rscale>  0 0.12500406E+03</rscale>
<asrwt>0</asrwt>
<pdfrwt beam="1">  1       21 0.13175031E+00 0.12500406E+03</pdfrwt>
<pdfrwt beam="2">  1       21 0.18531759E-02 0.12500406E+03</pdfrwt>
<totfact> 0.59058699E+05</totfact>
</mgrwt>
</event>
<event>
 9      1 +9.5563000e+06 1.25008500e+02 7.81860800e-03 1.23505600e-01
       21 -1    0    0  502  501 +0.0000000000e+00 +0.0000000000e+00 +2.6515210419e+02 2.6515210419e+02 0.0000000000e+00 0.0000e+00 -1.0000e+00
       21 -1    0    0  501  502 -0.0000000000e+00 -0.0000000000e+00 -1.4734112668e+01 1.4734112668e+01 0.0000000000e+00 0.0000e+00 -1.0000e+00
       25  2    1    2    0    0 +7.1054273576e-15 -1.7763568394e-15 +2.5041799152e+02 2.7988621686e+02 1.2500849535e+02 0.0000e+00 0.0000e+00
  9000006  2    3    3    0    0 -4.6997927885e+01 -7.0302925201e+00 +1.0960844574e+02 1.2598508489e+02 3.9999999996e+01 0.0000e+00 0.0000e+00
  9000006  2    3    3    0    0 +4.6997927885e+01 +7.0302925201e+00 +1.4080954578e+02 1.5390113196e+02 3.9999999973e+01 0.0000e+00 0.0000e+00
      -11  1    4    4    0    0 +2.1167395672e+00 +6.4211772175e+00 +2.1892596386e+00 7.1066842493e+00 0.0000000000e+00 0.0000e+00 1.0000e+00
       13  1    4    4    0    0 -4.9114667452e+01 -1.3451469738e+01 +1.0741918610e+02 1.1887840064e+02 0.0000000000e+00 0.0000e+00 1.0000e+00
      -11  1    5    5    0    0 +1.1766909788e+01 -1.3049027839e+01 +7.1248692058e+01 7.3383331987e+01 0.0000000000e+00 0.0000e+00 1.0000e+00
       13  1    5    5    0    0 +3.5231018097e+01 +2.0079320359e+01 +6.9560853726e+01 8.0517799978e+01 0.0000000000e+00 0.0000e+00 1.0000e+00
<mgrwt>
<rscale>  0 0.12500850E+03</rscale>
<asrwt>0</asrwt>
<pdfrwt beam="1">  1       21 0.66288011E-01 0.12500850E+03</pdfrwt>
<pdfrwt beam="2">  1       21 0.36835290E-02 0.12500850E+03</pdfrwt>
<totfact> 0.94261164E+05</totfact>
</mgrwt>
</event>
<event>
 9      1 +9.5563000e+06 1.25027800e+02 7.81860800e-03 1.23502600e-01
       21 -1    0    0  502  501 +0.0000000000e+00 +0.0000000000e+00 +1.2704493131e+01 1.2704493131e+01 0.0000000000e+00 0.0000e+00 1.0000e+00
       21 -1    0    0  501  502 -0.0000000000e+00 -0.0000000000e+00 -3.0760665730e+02 3.0760665730e+02 0.0000000000e+00 0.0000e+00 1.0000e+00
       25  2    1    2    0    0 +0.0000000000e+00 +0.0000000000e+00 -2.9490216417e+02 3.2031115043e+02 1.2502778355e+02 0.0000e+00 0.0000e+00
  9000006  2    3    3    0    0 +1.6199867504e+01 -2.9897502334e+01 -2.3439383395e+02 2.4020151071e+02 4.0000000027e+01 0.0000e+00 0.0000e+00
  9000006  2    3    3    0    0 -1.6199867504e+01 +2.9897502334e+01 -6.0508330224e+01 8.0109639723e+01 3.9999999964e+01 0.0000e+00 0.0000e+00
      -11  1    5    5    0    0 -1.7406527563e+01 +2.6791780040e+01 -1.6469291312e+01 3.5944738639e+01 0.0000000000e+00 0.0000e+00 1.0000e+00
       13  1    4    4    0    0 -4.4252802433e-01 +3.0757093768e+00 -1.1900315540e+02 1.1904371808e+02 0.0000000000e+00 0.0000e+00 1.0000e+00
      -11  1    4    4    0    0 +1.6642395528e+01 -3.2973211711e+01 -1.1539067855e+02 1.2115779263e+02 0.0000000000e+00 0.0000e+00 1.0000e+00
       13  1    5    5    0    0 +1.2066600591e+00 +3.1057222938e+00 -4.4039038912e+01 4.4164901084e+01 0.0000000000e+00 0.0000e+00 1.0000e+00
<mgrwt>
<rscale>  0 0.12502778E+03</rscale>
<asrwt>0</asrwt>
<pdfrwt beam="1">  1       21 0.31761233E-02 0.12502778E+03</pdfrwt>
<pdfrwt beam="2">  1       21 0.76901663E-01 0.12502778E+03</pdfrwt>
<totfact> 0.86978730E+05</totfact>
</mgrwt>
</event>
<event>
 9      1 +9.5563000e+06 1.25001700e+02 7.81860800e-03 1.23506700e-01
       21 -1    0    0  502  501 +0.0000000000e+00 +0.0000000000e+00 +3.9416978405e+01 3.9416978405e+01 0.0000000000e+00 0.0000e+00 -1.0000e+00
       21 -1    0    0  501  502 -0.0000000000e+00 -0.0000000000e+00 -9.9103348044e+01 9.9103348044e+01 0.0000000000e+00 0.0000e+00 -1.0000e+00
       25  2    1    2    0    0 -4.4408920985e-16 +3.5527136788e-15 -5.9686369639e+01 1.3852032645e+02 1.2500167246e+02 0.0000e+00 0.0000e+00
  9000006  2    3    3    0    0 -3.4608965862e+00 +1.9069992036e+01 -7.8535053854e+01 9.0240772915e+01 4.0000000137e+01 0.0000e+00 0.0000e+00
  9000006  2    3    3    0    0 +3.4608965862e+00 -1.9069992036e+01 +1.8848684215e+01 4.8279553534e+01 3.9999999893e+01 0.0000e+00 0.0000e+00
      -11  1    4    4    0    0 -1.4343014461e+01 -6.7662665643e+00 -3.5480314085e+01 3.8863313223e+01 0.0000000000e+00 0.0000e+00 1.0000e+00
       13  1    4    4    0    0 +1.0882117874e+01 +2.5836258600e+01 -4.3054739768e+01 5.1377459692e+01 0.0000000000e+00 0.0000e+00 1.0000e+00
      -11  1    5    5    0    0 -2.2664060212e+00 -2.3938285422e+01 +2.7691115433e+01 3.6673914151e+01 0.0000000000e+00 0.0000e+00 1.0000e+00
       13  1    5    5    0    0 +5.7273026074e+00 +4.8682933864e+00 -8.8424312181e+00 1.1605639383e+01 0.0000000000e+00 0.0000e+00 1.0000e+00
<mgrwt>
<rscale>  0 0.12500167E+03</rscale>
<asrwt>0</asrwt>
<pdfrwt beam="1">  1       21 0.98542447E-02 0.12500167E+03</pdfrwt>
<pdfrwt beam="2">  1       21 0.24775837E-01 0.12500167E+03</pdfrwt>
<totfact> 0.12807690E+06</totfact>
</mgrwt>
</event>
<event>
 9      1 +9.5563000e+06 1.25005300e+02 7.81860800e-03 1.23506100e-01
       21 -1    0    0  502  501 +0.0000000000e+00 +0.0000000000e+00 +7.6843591508e+02 7.6843591508e+02 0.0000000000e+00 0.0000e+00 1.0000e+00
       21 -1    0    0  501  502 -0.0000000000e+00 -0.0000000000e+00 -5.0838062211e+00 5.0838062211e+00 0.0000000000e+00 0.0000e+00 1.0000e+00
       25  2    1    2    0    0 +0.0000000000e+00 +0.0000000000e+00 +7.6335210886e+02 7.7351972130e+02 1.2500526846e+02 0.0000e+00 0.0000e+00
  9000006  2    3    3    0    0 +8.1785095537e+00 -4.7212712137e+01 +3.6148124118e+02 3.6683050027e+02 4.0000000041e+01 0.0000e+00 0.0000e+00
  9000006  2    3    3    0    0 -8.1785095537e+00 +4.7212712137e+01 +4.0187086769e+02 4.0668922103e+02 4.0000000021e+01 0.0000e+00 0.0000e+00
      -11  1    5    5    0    0 -2.2100258438e+01 +4.1702267210e+01 +3.1977715508e+02 3.2324128670e+02 0.0000000000e+00 0.0000e+00 1.0000e+00
       13  1    4    4    0    0 +1.8047374726e+01 -4.5111400975e+01 +3.3476052095e+02 3.3826816672e+02 0.0000000000e+00 0.0000e+00 1.0000e+00
      -11  1    4    4    0    0 -9.8688651727e+00 -2.1013111620e+00 +2.6720720227e+01 2.8562333550e+01 0.0000000000e+00 0.0000e+00 1.0000e+00
       13  1    5    5    0    0 +1.3921748885e+01 +5.5104449264e+00 +8.2093712605e+01 8.3447934333e+01 0.0000000000e+00 0.0000e+00 1.0000e+00
<mgrwt>
<rscale>  0 0.12500527E+03</rscale>
<asrwt>0</asrwt>
<pdfrwt beam="1">  1       21 0.19210858E+00 0.12500527E+03</pdfrwt>
<pdfrwt beam="2">  1       21 0.12709542E-02 0.12500527E+03</pdfrwt>
<totfact> 0.39741789E+05</totfact>
</mgrwt>
</event>
<event>
 9      1 +9.5563000e+06 1.24993700e+02 7.81860800e-03 1.23507900e-01
       21 -1    0    0  502  501 +0.0000000000e+00 +0.0000000000e+00 +9.7265212580e+02 9.7265212580e+02 0.0000000000e+00 0.0000e+00 1.0000e+00
       21 -1    0    0  501  502 -0.0000000000e+00 -0.0000000000e+00 -4.0156780557e+00 4.0156780557e+00 0.0000000000e+00 0.0000e+00 1.0000e+00
       25  2    1    2    0    0 -1.7763568394e-15 +0.0000000000e+00 +9.6863644775e+02 9.7666780386e+02 1.2499372460e+02 0.0000e+00 0.0000e+00
  9000006  2    3    3    0    0 +1.5851743518e+01 +4.5061119372e+01 +4.4597870675e+02 4.5030965917e+02 4.0000000209e+01 0.0000e+00 0.0000e+00
  9000006  2    3    3    0    0 -1.5851743518e+01 -4.5061119372e+01 +5.2265774100e+02 5.2635814469e+02 4.0000000038e+01 0.0000e+00 0.0000e+00
      -11  1    5    5    0    0 -2.6371198554e+01 -2.4337429931e+01 +2.3040648308e+02 2.3318425773e+02 0.0000000000e+00 0.0000e+00 1.0000e+00
       13  1    4    4    0    0 +1.0470919953e+01 +4.9394785259e+01 +4.2926298285e+02 4.3222238885e+02 0.0000000000e+00 0.0000e+00 1.0000e+00
      -11  1    4    4    0    0 +5.3808235647e+00 -4.3336658873e+00 +1.6715723896e+01 1.8087270319e+01 0.0000000000e+00 0.0000e+00 1.0000e+00
       13  1    5    5    0    0 +1.0519455037e+01 -2.0723689441e+01 +2.9225125792e+02 2.9317388696e+02 0.0000000000e+00 0.0000e+00 1.0000e+00
<mgrwt>
<rscale>  0 0.12499372E+03</rscale>
<asrwt>0</asrwt>
<pdfrwt beam="1">  1       21 0.24316223E+00 0.12499372E+03</pdfrwt>
<pdfrwt beam="2">  1       21 0.10039228E-02 0.12499372E+03</pdfrwt>
<totfact> 0.28354197E+05</totfact>
</mgrwt>
</event>
<event>
 8      1 +9.5563000e+06 1.25631800e+02 7.81860800e-03 1.23408500e-01
       21 -1    0    0  502  501 +0.0000000000e+00 +0.0000000000e+00 +2.3845310292e+01 2.3845310292e+01 0.0000000000e+00 0.0000e+00 -1.0000e+00
       21 -1    0    0  501  502 -0.0000000000e+00 -0.0000000000e+00 -1.6547654395e+02 1.6547654395e+02 0.0000000000e+00 0.0000e+00 -1.0000e+00
  9000006  2    1    2    0    0 -2.5482980590e+01 +2.4569138611e+01 -2.0998992014e+01 5.7393227334e+01 4.0000000080e+01 0.0000e+00 0.0000e+00
  9000006  2    1    2    0    0 +2.5482980590e+01 -2.4569138611e+01 -1.2063224164e+02 1.3192862691e+02 4.0000000024e+01 0.0000e+00 0.0000e+00
      -11  1    3    3    0    0 -3.4026844542e+01 +2.4908532405e+01 -9.7825049940e+00 4.3289242775e+01 0.0000000000e+00 0.0000e+00 1.0000e+00
       13  1    3    3    0    0 +8.5438639519e+00 -3.3939379386e-01 -1.1216487020e+01 1.4103984560e+01 0.0000000000e+00 0.0000e+00 1.0000e+00
      -11  1    4    4    0    0 +1.4420609490e+01 +6.3180556772e+00 -6.8854745295e+01 7.0631775818e+01 0.0000000000e+00 0.0000e+00 1.0000e+00
       13  1    4    4    0    0 +1.1062371100e+01 -3.0887194288e+01 -5.1777496349e+01 6.1296851090e+01 0.0000000000e+00 0.0000e+00 1.0000e+00
<mgrwt>
<rscale>  0 0.12563184E+03</rscale>
<asrwt>0</asrwt>
<pdfrwt beam="1">  1       21 0.59613276E-02 0.12563184E+03</pdfrwt>
<pdfrwt beam="2">  1       21 0.41369136E-01 0.12563184E+03</pdfrwt>
<totfact> 0.11221499E+06</totfact>
</mgrwt>
</event>
<event>
 9      1 +9.5563000e+06 1.25030100e+02 7.81860800e-03 1.23502200e-01
       21 -1    0    0  502  501 +0.0000000000e+00 +0.0000000000e+00 +4.4613782830e+01 4.4613782830e+01 0.0000000000e+00 0.0000e+00 -1.0000e+00
       21 -1    0    0  501  502 -0.0000000000e+00 -0.0000000000e+00 -8.7599210860e+01 8.7599210860e+01 0.0000000000e+00 0.0000e+00 -1.0000e+00
       25  2    1    2    0    0 +0.0000000000e+00 -3.3306690739e-16 -4.2985428030e+01 1.3221299369e+02 1.2503011108e+02 0.0000e+00 0.0000e+00
  9000006  2    3    3    0    0 +2.4112514347e+01 +7.2604076202e-01 -6.5427046659e+01 8.0390539965e+01 3.9999999976e+01 0.0000e+00 0.0000e+00
  9000006  2    3    3    0    0 -2.4112514347e+01 -7.2604076202e-01 +2.2441618629e+01 5.1822453725e+01 3.9999999751e+01 0.0000e+00 0.0000e+00
      -11  1    5    5    0    0 +1.6546457333e+00 +5.4900061943e+00 -9.0170117973e+00 1.0685715805e+01 0.0000000000e+00 0.0000e+00 1.0000e+00
       13  1    4    4    0    0 +3.3177569163e+01 -1.1514591075e-01 -6.2615481965e+01 7.0862281475e+01 0.0000000000e+00 0.0000e+00 1.0000e+00
      -11  1    4    4    0    0 -9.0650548158e+00 +8.4118667277e-01 -2.8115646945e+00 9.5282584905e+00 0.0000000000e+00 0.0000e+00 1.0000e+00
       13  1    5    5    0    0 -2.5767160081e+01 -6.2160469563e+00 +3.1458630427e+01 4.1136737920e+01 0.0000000000e+00 0.0000e+00 1.0000e+00
<mgrwt>
<rscale>  0 0.12503011E+03</rscale>
<asrwt>0</asrwt>
<pdfrwt beam="1">  1       21 0.11153446E-01 0.12503011E+03</pdfrwt>
<pdfrwt beam="2">  1       21 0.21899803E-01 0.12503011E+03</pdfrwt>
<totfact> 0.12990347E+06</totfact>
</mgrwt>
</event>
<event>
 9      1 +9.5563000e+06 1.24997400e+02 7.81860800e-03 1.23507300e-01
       21 -1    0    0  502  501 +0.0000000000e+00 +0.0000000000e+00 +3.5481464670e+02 3.5481464670e+02 0.0000000000e+00 0.0000e+00 -1.0000e+00
       21 -1    0    0  501  502 -0.0000000000e+00 -0.0000000000e+00 -1.1008808082e+01 1.1008808082e+01 0.0000000000e+00 0.0000e+00 -1.0000e+00
       25  2    1    2    0    0 +3.5527136788e-15 +0.0000000000e+00 +3.4380583862e+02 3.6582345478e+02 1.2499738158e+02 0.0000e+00 0.0000e+00
  9000006  2    3    3    0    0 -3.0795755798e+01 -1.0176746035e+01 +6.8258977851e+01 8.5505747169e+01 4.0000000083e+01 0.0000e+00 0.0000e+00
  9000006  2    3    3    0    0 +3.0795755798e+01 +1.0176746035e+01 +2.7554686077e+02 2.8031770762e+02 3.9999999852e+01 0.0000e+00 0.0000e+00
      -11  1    5    5    0    0 +2.0780074063e+01 -5.6089590734e+00 +2.3108689141e+02 2.3208710279e+02 0.0000000000e+00 0.0000e+00 1.0000e+00
       13  1    4    4    0    0 -3.6112980533e+01 +3.7523710597e+00 +5.2284362936e+01 6.3654397014e+01 0.0000000000e+00 0.0000e+00 1.0000e+00
      -11  1    4    4    0    0 +5.3172247346e+00 -1.3929117095e+01 +1.5974614914e+01 2.1851350155e+01 0.0000000000e+00 0.0000e+00 1.0000e+00
       13  1    5    5    0    0 +1.0015681735e+01 +1.5785705109e+01 +4.4459969355e+01 4.8230604822e+01 0.0000000000e+00 0.0000e+00 1.0000e+00
<mgrwt>
<rscale>  0 0.12499738E+03</rscale>
<asrwt>0</asrwt>
<pdfrwt beam="1">  1       21 0.88703624E-01 0.12499738E+03</pdfrwt>
<pdfrwt beam="2">  1       21 0.27522032E-02 0.12499738E+03</pdfrwt>
<totfact> 0.79808000E+05</totfact>
</mgrwt>
</event>
<event>
 8      1 +9.5563000e+06 1.25006000e+02 7.81860800e-03 1.23506000e-01
       21 -1    0    0  502  501 +0.0000000000e+00 +0.0000000000e+00 +9.4757071869e+00 9.4757071869e+00 0.0000000000e+00 0.0000e+00 -1.0000e+00
       21 -1    0    0  501  502 -0.0000000000e+00 -0.0000000000e+00 -4.1227783941e+02 4.1227783941e+02 0.0000000000e+00 0.0000e+00 -1.0000e+00
       25  2    1    2    0    0 +0.0000000000e+00 +0.0000000000e+00 -4.0280213222e+02 4.2175354660e+02 1.2500598523e+02 0.0000e+00 0.0000e+00
  9000006  2    3    3    0    0 +1.6704003033e+01 -3.3360150136e+01 -3.0344037324e+02 3.0833096414e+02 3.9999999981e+01 0.0000e+00 0.0000e+00
      -11  1    3    3    0    0 +7.8911032883e+00 +1.1644505153e+01 -7.6359332115e+00 1.6005358083e+01 0.0000000000e+00 0.0000e+00 1.0000e+00
       13  1    4    4    0    0 +8.8728092844e+00 -7.9510719097e+00 -2.2855732020e+02 2.2886763622e+02 0.0000000000e+00 0.0000e+00 1.0000e+00
      -11  1    4    4    0    0 +7.8311937487e+00 -2.5409078226e+01 -7.4883053037e+01 7.9463327919e+01 0.0000000000e+00 0.0000e+00 1.0000e+00
       13  1    3    3    0    0 -2.4595106321e+01 +2.1715644983e+01 -9.1725825771e+01 9.7417224377e+01 0.0000000000e+00 0.0000e+00 1.0000e+00
<mgrwt>
<rscale>  0 0.12500599E+03</rscale>
<asrwt>0</asrwt>
<pdfrwt beam="1">  1       21 0.23689268E-02 0.12500599E+03</pdfrwt>
<pdfrwt beam="2">  1       21 0.10306946E+00 0.12500599E+03</pdfrwt>
<totfact> 0.71964772E+05</totfact>
</mgrwt>
</event>
<event>
 9      1 +9.5563000e+06 1.24993500e+02 7.81860800e-03 1.23507900e-01
       21 -1    0    0  502  501 +0.0000000000e+00 +0.0000000000e+00 +1.9209686419e+01 1.9209686419e+01 0.0000000000e+00 0.0000e+00 1.0000e+00
       21 -1    0    0  501  502 -0.0000000000e+00 -0.0000000000e+00 -2.0332667150e+02 2.0332667150e+02 0.0000000000e+00 0.0000e+00 1.0000e+00
       25  2    1    2    0    0 +0.0000000000e+00 +3.5527136788e-15 -1.8411698509e+02 2.2253635792e+02 1.2499346543e+02 0.0000e+00 0.0000e+00
  9000006  2    3    3    0    0 +3.4511473814e+01 -3.1584374203e+01 -1.1133496922e+02 1.2721670442e+02 3.9999999911e+01 0.0000e+00 0.0000e+00
  9000006  2    3    3    0    0 -3.4511473814e+01 +3.1584374203e+01 -7.2782015866e+01 9.5319653506e+01 3.9999999906e+01 0.0000e+00 0.0000e+00
      -11  1    4    4    0    0 -4.3531961541e+00 +4.8609571259e+00 -4.7968130568e+00 8.0986811542e+00 0.0000000000e+00 0.0000e+00 1.0000e+00
       13  1    4    4    0    0 +3.8864669968e+01 -3.6445331329e+01 -1.0653815616e+02 1.1911802326e+02 0.0000000000e+00 0.0000e+00 1.0000e+00
      -11  1    5    5    0    0 -2.8312804171e+01 +8.0742503284e+00 -1.5903328212e+01 3.3462280954e+01 0.0000000000e+00 0.0000e+00 1.0000e+00
       13  1    5    5    0    0 -6.1986696430e+00 +2.3510123874e+01 -5.6878687654e+01 6.1857372553e+01 0.0000000000e+00 0.0000e+00 1.0000e+00
<mgrwt>
<rscale>  0 0.12499347E+03</rscale>
<asrwt>0</asrwt>
<pdfrwt beam="1">  1       21 0.48024215E-02 0.12499347E+03</pdfrwt>
<pdfrwt beam="2">  1       21 0.50831669E-01 0.12499347E+03</pdfrwt>
<totfact> 0.10617027E+06</totfact>
</mgrwt>
</event>
<event>
 9      1 +9.5563000e+06 1.24998400e+02 7.81860800e-03 1.23507200e-01
       21 -1    0    0  502  501 +0.0000000000e+00 +0.0000000000e+00 +3.2513622478e+02 3.2513622478e+02 0.0000000000e+00 0.0000e+00 1.0000e+00
       21 -1    0    0  501  502 -0.0000000000e+00 -0.0000000000e+00 -1.2013883472e+01 1.2013883472e+01 0.0000000000e+00 0.0000e+00 1.0000e+00
       25  2    1    2    0    0 -8.8817841970e-16 +0.0000000000e+00 +3.1312234131e+02 3.3715010825e+02 1.2499837946e+02 0.0000e+00 0.0000e+00
  9000006  2    3    3    0    0 -3.3289545366e+00 +9.8601221322e+00 +3.0111579685e+01 5.1137179994e+01 3.9999999997e+01 0.0000e+00 0.0000e+00
  9000006  2    3    3    0    0 +3.3289545366e+00 -9.8601221322e+00 +2.8301076163e+02 2.8601292826e+02 3.9999999873e+01 0.0000e+00 0.0000e+00
      -11  1    4    4    0    0 +2.7331370950e+00 -1.0278493936e+01 -3.7487463660e+00 1.1276993185e+01 0.0000000000e+00 0.0000e+00 1.0000e+00
       13  1    4    4    0    0 -6.0620916315e+00 +2.0138616069e+01 +3.3860326051e+01 3.9860186809e+01 0.0000000000e+00 0.0000e+00 1.0000e+00
      -11  1    5    5    0    0 -1.7945930325e+00 -2.3976950577e+01 +1.2510047982e+02 1.2739012825e+02 0.0000000000e+00 0.0000e+00 1.0000e+00
       13  1    5    5    0    0 +5.1235475690e+00 +1.4116828444e+01 +1.5791028180e+02 1.5862280001e+02 0.0000000000e+00 0.0000e+00 1.0000e+00
<mgrwt>
<rscale>  0 0.12499838E+03</rscale>
<asrwt>0</asrwt>
<pdfrwt beam="1">  1       21 0.81284027E-01 0.12499838E+03</pdfrwt>
<pdfrwt beam="2">  1       21 0.30034719E-02 0.12499838E+03</pdfrwt>
<totfact> 0.84263771E+05</totfact>
</mgrwt>
</event>
<event>
 9      1 +9.5563000e+06 1.24999300e+02 7.81860800e-03 1.23507000e-01
       21 -1    0    0  502  501 +0.0000000000e+00 +0.0000000000e+00 +2.4215099229e+01 2.4215099229e+01 0.0000000000e+00 0.0000e+00 1.0000e+00
       21 -1    0    0  501  502 -0.0000000000e+00 -0.0000000000e+00 -1.6131271006e+02 1.6131271006e+02 0.0000000000e+00 0.0000e+00 1.0000e+00
       25  2    1    2    0    0 +0.0000000000e+00 -1.7763568394e-15 -1.3709761083e+02 1.8552780929e+02 1.2499925249e+02 0.0000e+00 0.0000e+00
  9000006  2    3    3    0    0 -3.8333108477e+01 +1.1950678590e+01 -2.9449594418e+01 6.3871155717e+01 3.9999999962e+01 0.0000e+00 0.0000e+00
  9000006  2    3    3    0    0 +3.8333108477e+01 -1.1950678590e+01 -1.0764801641e+02 1.2165665357e+02 3.9999999954e+01 0.0000e+00 0.0000e+00
      -11  1    5    5    0    0 -6.6510138141e+00 -6.0814102949e-01 -3.3741463553e+01 3.4396107090e+01 0.0000000000e+00 0.0000e+00 1.0000e+00
       13  1    4    4    0    0 -2.9046042242e+01 -4.9216081398e+00 -9.5146593570e-01 2.9475414909e+01 0.0000000000e+00 0.0000e+00 1.0000e+00
      -11  1    4    4    0    0 -9.2870662341e+00 +1.6872286730e+01 -2.8498128482e+01 3.4395740808e+01 0.0000000000e+00 0.0000e+00 1.0000e+00
       13  1    5    5    0    0 +4.4984122291e+01 -1.1342537561e+01 -7.3906552862e+01 8.7260546483e+01 0.0000000000e+00 0.0000e+00 1.0000e+00
<mgrwt>
<rscale>  0 0.12499925E+03</rscale>
<asrwt>0</asrwt>
<pdfrwt beam="1">  1       21 0.60537749E-02 0.12499925E+03</pdfrwt>
<pdfrwt beam="2">  1       21 0.40328177E-01 0.12499925E+03</pdfrwt>
<totfact> 0.11504728E+06</totfact>
</mgrwt>
</event>
<event>
 9      1 +9.5563000e+06 1.24985900e+02 7.81860800e-03 1.23509100e-01
       21 -1    0    0  502  501 +0.0000000000e+00 +0.0000000000e+00 +3.0865689225e+02 3.0865689225e+02 0.0000000000e+00 0.0000e+00 -1.0000e+00
       21 -1    0    0  501  502 -0.0000000000e+00 -0.0000000000e+00 -1.2652775653e+01 1.2652775653e+01 0.0000000000e+00 0.0000e+00 -1.0000e+00
       25  2    1    2    0    0 +0.0000000000e+00 +0.0000000000e+00 +2.9600411660e+02 3.2130966791e+02 1.2498586178e+02 0.0000e+00 0.0000e+00
  9000006  2    3    3    0    0 -1.9610810602e+01 -1.2540088101e+01 +2.5595989559e+02 2.6011018022e+02 3.9999999998e+01 0.0000e+00 0.0000e+00
  9000006  2    3    3    0    0 +1.9610810602e+01 +1.2540088101e+01 +4.0044221009e+01 6.1199487689e+01 3.9999999439e+01 0.0000e+00 0.0000e+00
      -11  1    5    5    0    0 +2.4391562522e+01 -7.4822354909e+00 +1.9454199237e+01 3.2084233483e+01 0.0000000000e+00 0.0000e+00 1.0000e+00
       13  1    4    4    0    0 -2.5323041492e+01 -2.2162493502e+01 +2.1629035003e+02 2.1889254913e+02 0.0000000000e+00 0.0000e+00 1.0000e+00
      -11  1    4    4    0    0 +5.7122308900e+00 +9.6224054011e+00 +3.9669545563e+01 4.1217631089e+01 0.0000000000e+00 0.0000e+00 1.0000e+00
       13  1    5    5    0    0 -4.7807519200e+00 +2.0022323591e+01 +2.0590021772e+01 2.9115254206e+01 0.0000000000e+00 0.0000e+00 1.0000e+00
<mgrwt>
<rscale>  0 0.12498586E+03</rscale>
<asrwt>0</asrwt>
<pdfrwt beam="1">  1       21 0.77164198E-01 0.12498586E+03</pdfrwt>
<pdfrwt beam="2">  1       21 0.31631949E-02 0.12498586E+03</pdfrwt>
<totfact> 0.86904614E+05</totfact>
</mgrwt>
</event>
<event>
 9      1 +9.5563000e+06 1.25001000e+02 7.81860800e-03 1.23506800e-01
       21 -1    0    0  502  501 +0.0000000000e+00 +0.0000000000e+00 +1.2208887866e+02 1.2208887866e+02 0.0000000000e+00 0.0000e+00 -1.0000e+00
       21 -1    0    0  501  502 -0.0000000000e+00 -0.0000000000e+00 -3.1995635830e+01 3.1995635830e+01 0.0000000000e+00 0.0000e+00 -1.0000e+00
       25  2    1    2    0    0 +0.0000000000e+00 -3.5527136788e-15 +9.0093242834e+01 1.5408451449e+02 1.2500098081e+02 0.0000e+00 0.0000e+00
  9000006  2    3    3    0    0 -2.6296708213e+01 +2.9791807990e+01 +1.1804767623e+01 5.7605739452e+01 3.9999999913e+01 0.0000e+00 0.0000e+00
  9000006  2    3    3    0    0 +2.6296708213e+01 -2.9791807990e+01 +7.8288475211e+01 9.6478775043e+01 3.9999999959e+01 0.0000e+00 0.0000e+00
      -11  1    5    5    0    0 -9.9420538075e+00 -1.1401722768e+00 +1.1153897735e+01 1.4985121335e+01 0.0000000000e+00 0.0000e+00 1.0000e+00
       13  1    4    4    0    0 -4.5195082507e-01 +1.8311413694e+01 -1.0921466059e+01 2.1325818903e+01 0.0000000000e+00 0.0000e+00 1.0000e+00
      -11  1    4    4    0    0 -2.5844757388e+01 +1.1480394296e+01 +2.2726233682e+01 3.6279920549e+01 0.0000000000e+00 0.0000e+00 1.0000e+00
       13  1    5    5    0    0 +3.6238762021e+01 -2.8651635713e+01 +6.7134577475e+01 8.1493653708e+01 0.0000000000e+00 0.0000e+00 1.0000e+00
<mgrwt>
<rscale>  0 0.12500098E+03</rscale>
<asrwt>0</asrwt>
<pdfrwt beam="1">  1       21 0.30522219E-01 0.12500098E+03</pdfrwt>
<pdfrwt beam="2">  1       21 0.79989093E-02 0.12500098E+03</pdfrwt>
<totfact> 0.12351307E+06</totfact>
</mgrwt>
</event>
<event>
 9      1 +9.5563000e+06 1.25001700e+02 7.81860800e-03 1.23506700e-01
       21 -1    0    0  502  501 +0.0000000000e+00 +0.0000000000e+00 +5.1467256197e+02 5.1467256197e+02 0.0000000000e+00 0.0000e+00 -1.0000e+00
       21 -1    0    0  501  502 -0.0000000000e+00 -0.0000000000e+00 -7.5899825054e+00 7.5899825054e+00 0.0000000000e+00 0.0000e+00 -1.0000e+00
       25  2    1    2    0    0 +1.4210854715e-14 +1.7763568394e-15 +5.0708257946e+02 5.2226254447e+02 1.2500169185e+02 0.0000e+00 0.0000e+00
  9000006  2    3    3    0    0 +4.6948332085e+01 -6.9037690529e+00 +2.8439885977e+02 2.9109194313e+02 4.0000000010e+01 0.0000e+00 0.0000e+00
  9000006  2    3    3    0    0 -4.6948332085e+01 +6.9037690529e+00 +2.2268371969e+02 2.3117060134e+02 3.9999999990e+01 0.0000e+00 0.0000e+00
      -11  1    4    4    0    0 +3.9328116920e+01 -1.2841692495e+01 +2.7314486998e+02 2.7626025744e+02 0.0000000000e+00 0.0000e+00 1.0000e+00
       13  1    4    4    0    0 +7.6202151648e+00 +5.9379234419e+00 +1.1253989794e+01 1.4831685685e+01 0.0000000000e+00 0.0000e+00 1.0000e+00
      -11  1    5    5    0    0 -5.0017687103e+01 -4.2477675194e+00 +1.8918223072e+02 1.9572871269e+02 0.0000000000e+00 0.0000e+00 1.0000e+00
       13  1    5    5    0    0 +3.0693550182e+00 +1.1151536572e+01 +3.3501488968e+01 3.5441888652e+01 0.0000000000e+00 0.0000e+00 1.0000e+00
<mgrwt>
<rscale>  0 0.12500169E+03</rscale>
<asrwt>0</asrwt>
<pdfrwt beam="1">  1       21 0.12866802E+00 0.12500169E+03</pdfrwt>
<pdfrwt beam="2">  1       21 0.18974974E-02 0.12500169E+03</pdfrwt>
<totfact> 0.60299705E+05</totfact>
</mgrwt>
</event>
<event>
 9      1 +9.5563000e+06 1.24990200e+02 7.81860800e-03 1.23508500e-01
       21 -1    0    0  502  501 +0.0000000000e+00 +0.0000000000e+00 +2.3193129457e+01 2.3193129457e+01 0.0000000000e+00 0.0000e+00 -1.0000e+00
       21 -1    0    0  501  502 -0.0000000000e+00 -0.0000000000e+00 -1.6839628418e+02 1.6839628418e+02 0.0000000000e+00 0.0000e+00 -1.0000e+00
       25  2    1    2    0    0 -7.1054273576e-15 +0.0000000000e+00 -1.4520315472e+02 1.9158941364e+02 1.2499018872e+02 0.0000e+00 0.0000e+00
  9000006  2    3    3    0    0 +4.6887563747e+01 -2.6024329152e+00 -5.7241025940e+01 8.4153142301e+01 4.0000000216e+01 0.0000e+00 0.0000e+00
  9000006  2    3    3    0    0 -4.6887563747e+01 +2.6024329152e+00 -8.7962128780e+01 1.0743627133e+02 4.0000000093e+01 0.0000e+00 0.0000e+00
      -11  1    5    5    0    0 +4.3072344243e+00 +6.6531781169e+00 -2.4775107203e+01 2.6011977710e+01 0.0000000000e+00 0.0000e+00 1.0000e+00
       13  1    4    4    0    0 +5.2106566456e+01 -4.5854201643e+00 -5.8452814969e+01 7.8440116801e+01 0.0000000000e+00 0.0000e+00 1.0000e+00
      -11  1    4    4    0    0 -5.2190027097e+00 +1.9829872491e+00 +1.2117890288e+00 5.7130255000e+00 0.0000000000e+00 0.0000e+00 1.0000e+00
       13  1    5    5    0    0 -5.1194798171e+01 -4.0507452017e+00 -6.3187021577e+01 8.1424293624e+01 0.0000000000e+00 0.0000e+00 1.0000e+00
<mgrwt>
<rscale>  0 0.12499019E+03</rscale>
<asrwt>0</asrwt>
<pdfrwt beam="1">  1       21 0.57982825E-02 0.12499019E+03</pdfrwt>
<pdfrwt beam="2">  1       21 0.42099070E-01 0.12499019E+03</pdfrwt>
<totfact> 0.11353896E+06</totfact>
</mgrwt>
</event>
<event>
 9      1 +9.5563000e+06 1.24997800e+02 7.81860800e-03 1.23507300e-01
       21 -1    0    0  502  501 +0.0000000000e+00 +0.0000000000e+00 +1.6682367192e+01 1.6682367192e+01 0.0000000000e+00 0.0000e+00 -1.0000e+00
       21 -1    0    0  501  502 -0.0000000000e+00 -0.0000000000e+00 -2.3414634099e+02 2.3414634099e+02 0.0000000000e+00 0.0000e+00 -1.0000e+00
       25  2    1    2    0    0 -3.5527136788e-15 -1.7763568394e-15 -2.1746397380e+02 2.5082870818e+02 1.2499784377e+02 0.0000e+00 0.0000e+00
  9000006  2    3    3    0    0 +2.1226572112e+01 +1.4710142579e+01 -1.8997487214e+02 1.9585047280e+02 3.9999999911e+01 0.0000e+00 0.0000e+00
  9000006  2    3    3    0    0 -2.1226572112e+01 -1.4710142579e+01 -2.7489101661e+01 5.4978235385e+01 3.9999999969e+01 0.0000e+00 0.0000e+00
      -11  1    4    4    0    0 -7.0134070546e+00 +1.0769769118e+01 -2.2050863213e+01 2.5522859828e+01 0.0000000000e+00 0.0000e+00 1.0000e+00
       13  1    4    4    0    0 +2.8239979167e+01 +3.9403734608e+00 -1.6792400893e+02 1.7032761297e+02 0.0000000000e+00 0.0000e+00 1.0000e+00
      -11  1    5    5    0    0 +7.7330142317e+00 +7.4877722207e+00 -9.2139561361e+00 1.4169094171e+01 0.0000000000e+00 0.0000e+00 1.0000e+00
       13  1    5    5    0    0 -2.8959586344e+01 -2.2197914800e+01 -1.8275145525e+01 4.0809141214e+01 0.0000000000e+00 0.0000e+00 1.0000e+00
<mgrwt>
<rscale>  0 0.12499784E+03</rscale>
<asrwt>0</asrwt>
<pdfrwt beam="1">  1       21 0.41705919E-02 0.12499784E+03</pdfrwt>
<pdfrwt beam="2">  1       21 0.58536583E-01 0.12499784E+03</pdfrwt>
<totfact> 0.10005119E+06</totfact>
</mgrwt>
</event>
<event>
 9      1 +9.5563000e+06 1.24999600e+02 7.81860800e-03 1.23507000e-01
       21 -1    0    0  502  501 +0.0000000000e+00 +0.0000000000e+00 +5.9985283878e+01 5.9985283878e+01 0.0000000000e+00 0.0000e+00 -1.0000e+00
       21 -1    0    0  501  502 -0.0000000000e+00 -0.0000000000e+00 -6.5119695409e+01 6.5119695409e+01 0.0000000000e+00 0.0000e+00 -1.0000e+00
       25  2    1    2    0    0 -7.1054273576e-15 +3.5527136788e-15 -5.1344115315e+00 1.2510497929e+02 1.2499957464e+02 0.0000e+00 0.0000e+00
  9000006  2    3    3    0    0 -3.1970856534e+01 +2.8210100976e+01 -2.4682851186e+01 6.3460133965e+01 3.9999999945e+01 0.0000e+00 0.0000e+00
  9000006  2    3    3    0    0 +3.1970856534e+01 -2.8210100976e+01 +1.9548439655e+01 6.1644845322e+01 3.9999999966e+01 0.0000e+00 0.0000e+00
      -11  1    4    4    0    0 -1.7245878632e+00 +4.0169093269e+00 -2.4337373657e+01 2.4726858279e+01 0.0000000000e+00 0.0000e+00 1.0000e+00
       13  1    4    4    0    0 -3.0246268671e+01 +2.4193191649e+01 -3.4547752922e-01 3.8733275686e+01 0.0000000000e+00 0.0000e+00 1.0000e+00
      -11  1    5    5    0    0 +3.9415216609e+01 -3.0350146119e+01 +2.0571078013e+01 5.3831774264e+01 0.0000000000e+00 0.0000e+00 1.0000e+00
       13  1    5    5    0    0 -7.4443600758e+00 +2.1400451428e+00 -1.0226383581e+00 7.8130710583e+00 0.0000000000e+00 0.0000e+00 1.0000e+00
<mgrwt>
<rscale>  0 0.12499957E+03</rscale>
<asrwt>0</asrwt>
<pdfrwt beam="1">  1       21 0.14996321E-01 0.12499957E+03</pdfrwt>
<pdfrwt beam="2">  1       21 0.16279924E-01 0.12499957E+03</pdfrwt>
<totfact> 0.13223572E+06</totfact>
</mgrwt>
</event>
<event>
 9      1 +9.5563000e+06 1.25000000e+02 7.81860800e-03 1.23506900e-01
       21 -1    0    0  502  501 +0.0000000000e+00 +0.0000000000e+00 +8.0443803306e+01 8.0443803306e+01 0.0000000000e+00 0.0000e+00 1.0000e+00
       21 -1    0    0  501  502 -0.0000000000e+00 -0.0000000000e+00 -4.8558731933e+01 4.8558731933e+01 0.0000000000e+00 0.0000e+00 1.0000e+00
       25  2    1    2    0    0 +7.1054273576e-15 -3.5527136788e-15 +3.1885071372e+01 1.2900253524e+02 1.2499998529e+02 0.0000e+00 0.0000e+00
  9000006  2    3    3    0    0 +3.4483143061e+01 -2.3197495263e+01 +4.0776262277e+01 7.0639326926e+01 4.0000000018e+01 0.0000e+00 0.0000e+00
  9000006  2    3    3    0    0 -3.4483143061e+01 +2.3197495263e+01 -8.8911909046e+00 5.8363208313e+01 3.9999998338e+01 0.0000e+00 0.0000e+00
      -11  1    5    5    0    0 +2.3168150746e+00 +1.0432624769e+01 -1.5528766377e+01 1.8850726163e+01 0.0000000000e+00 0.0000e+00 1.0000e+00
       13  1    4    4    0    0 +3.5432664268e+01 -1.7504927879e+00 +3.0739496241e+01 4.6940968794e+01 0.0000000000e+00 0.0000e+00 1.0000e+00
      -11  1    4    4    0    0 -9.4952120725e-01 -2.1447002475e+01 +1.0036766036e+01 2.3698358132e+01 0.0000000000e+00 0.0000e+00 1.0000e+00
       13  1    5    5    0    0 -3.6799958136e+01 +1.2764870494e+01 +6.6375754729e+00 3.9512482150e+01 0.0000000000e+00 0.0000e+00 1.0000e+00
<mgrwt>
<rscale>  0 0.12499999E+03</rscale>
<asrwt>0</asrwt>
<pdfrwt beam="1">  1       21 0.20110951E-01 0.12499999E+03</pdfrwt>
<pdfrwt beam="2">  1       21 0.12139683E-01 0.12499999E+03</pdfrwt>
<totfact> 0.13101064E+06</totfact>
</mgrwt>
</event>
<event>
 9      1 +9.5563000e+06 1.24996300e+02 7.81860800e-03 1.23507500e-01
       21 -1    0    0  502  501 +0.0000000000e+00 +0.0000000000e+00 +3.5042791990e+01 3.5042791990e+01 0.0000000000e+00 0.0000e+00 -1.0000e+00
       21 -1    0    0  501  502 -0.0000000000e+00 -0.0000000000e+00 -1.1146423488e+02 1.1146423488e+02 0.0000000000e+00 0.0000e+00 -1.0000e+00
       25  2    1    2    0    0 +0.0000000000e+00 +0.0000000000e+00 -7.6421442893e+01 1.4650702687e+02 1.2499628790e+02 0.0000e+00 0.0000e+00
  9000006  2    3    3    0    0 +2.2847477225e+01 +2.2560632574e+01 -8.0063212518e+01 9.5084737453e+01 3.9999999251e+01 0.0000e+00 0.0000e+00
  9000006  2    3    3    0    0 -2.2847477225e+01 -2.2560632574e+01 +3.6417696255e+00 5.1422289420e+01 4.0000000070e+01 0.0000e+00 0.0000e+00
      -11  1    5    5    0    0 -2.8612100799e+01 -1.6940032680e+01 -1.0738266706e+01 3.4941771437e+01 0.0000000000e+00 0.0000e+00 1.0000e+00
       13  1    4    4    0    0 +2.2812527842e+00 +2.8619196602e+01 -3.5698486308e+01 4.5810964333e+01 0.0000000000e+00 0.0000e+00 1.0000e+00
      -11  1    4    4    0    0 +2.0566224441e+01 -6.0585640280e+00 -4.4364726210e+01 4.9273773120e+01 0.0000000000e+00 0.0000e+00 1.0000e+00
       13  1    5    5    0    0 +5.7646235736e+00 -5.6205998934e+00 +1.4380036331e+01 1.6480517983e+01 0.0000000000e+00 0.0000e+00 1.0000e+00
<mgrwt>
<rscale>  0 0.12499629E+03</rscale>
<asrwt>0</asrwt>
<pdfrwt beam="1">  1       21 0.87606981E-02 0.12499629E+03</pdfrwt>
<pdfrwt beam="2">  1       21 0.27866058E-01 0.12499629E+03</pdfrwt>
<totfact> 0.12572696E+06</totfact>
</mgrwt>
</event>
<event>
 9      1 +9.5563000e+06 1.24999600e+02 7.81860800e-03 1.23507000e-01
       21 -1    0    0  502  501 +0.0000000000e+00 +0.0000000000e+00 +2.4660021358e+02 2.4660021358e+02 0.0000000000e+00 0.0000e+00 1.0000e+00
       21 -1    0    0  501  502 -0.0000000000e+00 -0.0000000000e+00 -1.5840316510e+01 1.5840316510e+01 0.0000000000e+00 0.0000e+00 1.0000e+00
       25  2    1    2    0    0 +0.0000000000e+00 +8.8817841970e-16 +2.3075989707e+02 2.6244053009e+02 1.2499960695e+02 0.0000e+00 0.0000e+00
  9000006  2    3    3    0    0 -4.3936017013e+01 +7.0836583067e+00 +7.7490911882e+01 9.7905021462e+01 3.9999999964e+01 0.0000e+00 0.0000e+00
  9000006  2    3    3    0    0 +4.3936017013e+01 -7.0836583067e+00 +1.5326898519e+02 1.6453550863e+02 3.9999999666e+01 0.0000e+00 0.0000e+00
      -11  1    4    4    0    0 -1.0676483118e+00 -2.5062152502e+00 +4.0174317409e+01 4.0266571335e+01 0.0000000000e+00 0.0000e+00 1.0000e+00
       13  1    4    4    0    0 -4.2868368701e+01 +9.5898735569e+00 +3.7316594473e+01 5.7638450127e+01 0.0000000000e+00 0.0000e+00 1.0000e+00
      -11  1    5    5    0    0 +1.2767046636e+01 -1.9561909469e+01 +3.9240697088e+01 4.5667254021e+01 0.0000000000e+00 0.0000e+00 1.0000e+00
       13  1    5    5    0    0 +3.1168970378e+01 +1.2478251163e+01 +1.1402828810e+02 1.1886825461e+02 0.0000000000e+00 0.0000e+00 1.0000e+00
<mgrwt>
<rscale>  0 0.12499961E+03</rscale>
<asrwt>0</asrwt>
<pdfrwt beam="1">  1       21 0.61650041E-01 0.12499961E+03</pdfrwt>
<pdfrwt beam="2">  1       21 0.39600799E-02 0.12499961E+03</pdfrwt>
<totfact> 0.97682351E+05</totfact>
</mgrwt>
</event>
<event>
 9      1 +9.5563000e+06 1.24999300e+02 7.81860800e-03 1.23507000e-01
       21 -1    0    0  502  501 +0.0000000000e+00 +0.0000000000e+00 +1.6373349674e+01 1.6373349674e+01 0.0000000000e+00 0.0000e+00 -1.0000e+00
       21 -1    0    0  501  502 -0.0000000000e+00 -0.0000000000e+00 -2.3857092572e+02 2.3857092572e+02 0.0000000000e+00 0.0000e+00 -1.0000e+00
       25  2    1    2    0    0 +0.0000000000e+00 +0.0000000000e+00 -2.2219757605e+02 2.5494427540e+02 1.2499928302e+02 0.0000e+00 0.0000e+00
  9000006  2    3    3    0    0 -2.4109583204e+01 -4.1419583047e+01 -1.0486180241e+02 1.2203627108e+02 3.9999999896e+01 0.0000e+00 0.0000e+00
  9000006  2    3    3    0    0 +2.4109583204e+01 +4.1419583047e+01 -1.1733577363e+02 1.3290800432e+02 3.9999999684e+01 0.0000e+00 0.0000e+00
      -11  1    4    4    0    0 -1.7394338651e+00 +6.0292887702e-01 +3.3461799786e+00 3.8191718803e+00 0.0000000000e+00 0.0000e+00 1.0000e+00
       13  1    4    4    0    0 -2.2370149338e+01 -4.2022511924e+01 -1.0820798239e+02 1.1821709920e+02 0.0000000000e+00 0.0000e+00 1.0000e+00
      -11  1    5    5    0    0 +4.2780365032e+00 +3.0530872245e+01 -9.9296900654e+01 1.0397264177e+02 0.0000000000e+00 0.0000e+00 1.0000e+00
       13  1    5    5    0    0 +1.9831546700e+01 +1.0888710802e+01 -1.8038872980e+01 2.8935362549e+01 0.0000000000e+00 0.0000e+00 1.0000e+00
<mgrwt>
<rscale>  0 0.12499928E+03</rscale>
<asrwt>0</asrwt>
<pdfrwt beam="1">  1       21 0.40933375E-02 0.12499928E+03</pdfrwt>
<pdfrwt beam="2">  1       21 0.59642731E-01 0.12499928E+03</pdfrwt>
<totfact> 0.99199847E+05</totfact>
</mgrwt>
</event>
<event>
 9      1 +9.5563000e+06 1.24999100e+02 7.81860800e-03 1.23507100e-01
       21 -1    0    0  502  501 +0.0000000000e+00 +0.0000000000e+00 +2.7464498763e+01 2.7464498763e+01 0.0000000000e+00 0.0000e+00 -1.0000e+00
       21 -1    0    0  501  502 -0.0000000000e+00 -0.0000000000e+00 -1.4222706595e+02 1.4222706595e+02 0.0000000000e+00 0.0000e+00 -1.0000e+00
       25  2    1    2    0    0 +0.0000000000e+00 +3.5527136788e-15 -1.1476256719e+02 1.6969156471e+02 1.2499912123e+02 0.0000e+00 0.0000e+00
  9000006  2    3    3    0    0 +2.9565489149e+01 -2.7413360321e+01 -2.1965703984e+01 6.0894192091e+01 4.0000000077e+01 0.0000e+00 0.0000e+00
  9000006  2    3    3    0    0 -2.9565489149e+01 +2.7413360321e+01 -9.2796863201e+01 1.0879737262e+02 3.9999999955e+01 0.0000e+00 0.0000e+00
      -11  1    5    5    0    0 -3.4361150944e+01 +3.2098109919e+01 -6.5130444436e+01 8.0330269183e+01 0.0000000000e+00 0.0000e+00 1.0000e+00
       13  1    4    4    0    0 -6.9559329038e+00 -9.1308437936e+00 -1.5890786283e+01 1.9602918141e+01 0.0000000000e+00 0.0000e+00 1.0000e+00
      -11  1    4    4    0    0 +3.6521422053e+01 -1.8282516528e+01 -6.0749177010e+00 4.1291273950e+01 0.0000000000e+00 0.0000e+00 1.0000e+00
       13  1    5    5    0    0 +4.7956617944e+00 -4.6847495978e+00 -2.7666418766e+01 2.8467103438e+01 0.0000000000e+00 0.0000e+00 1.0000e+00
<mgrwt>
<rscale>  0 0.12499912E+03</rscale>
<asrwt>0</asrwt>
<pdfrwt beam="1">  1       21 0.68661247E-02 0.12499912E+03</pdfrwt>
<pdfrwt beam="2">  1       21 0.35556766E-01 0.12499912E+03</pdfrwt>
<totfact> 0.11919285E+06</totfact>
</mgrwt>
</event>
<event>
 9      1 +9.5563000e+06 1.25002100e+02 7.81860800e-03 1.23506600e-01
       21 -1    0    0  502  501 +0.0000000000e+00 +0.0000000000e+00 +6.4906190392e+00 6.4906190392e+00 0.0000000000e+00 0.0000e+00 -1.0000e+00
       21 -1    0    0  501  502 -0.0000000000e+00 -0.0000000000e+00 -6.0185006777e+02 6.0185006777e+02 0.0000000000e+00 0.0000e+00 -1.0000e+00
       25  2    1    2    0    0 +1.3322676296e-15 +0.0000000000e+00 -5.9535944873e+02 6.0834068681e+02 1.2500207212e+02 0.0000e+00 0.0000e+00
  9000006  2    3    3    0    0 -3.3192625537e+00 -4.6793057497e+01 -2.4762851212e+02 2.5518716219e+02 3.9999999977e+01 0.0000e+00 0.0000e+00
  9000006  2    3    3    0    0 +3.3192625537e+00 +4.6793057497e+01 -3.4773093661e+02 3.5315352462e+02 3.9999999260e+01 0.0000e+00 0.0000e+00
      -11  1    5    5    0    0 -1.5318386379e+01 +3.8075318231e+01 -2.3692740372e+02 2.4045577026e+02 0.0000000000e+00 0.0000e+00 1.0000e+00
       13  1    4    4    0    0 +1.5888633615e+00 -2.4106263823e+01 -4.3626819574e+01 4.9869187164e+01 0.0000000000e+00 0.0000e+00 1.0000e+00
      -11  1    4    4    0    0 -4.9081259152e+00 -2.2686793674e+01 -2.0400169254e+02 2.0531797502e+02 0.0000000000e+00 0.0000e+00 1.0000e+00
       13  1    5    5    0    0 +1.8637648933e+01 +8.7177392662e+00 -1.1080353289e+02 1.1269775436e+02 0.0000000000e+00 0.0000e+00 1.0000e+00
<mgrwt>
<rscale>  0 0.12500207E+03</rscale>
<asrwt>0</asrwt>
<pdfrwt beam="1">  1       21 0.16226549E-02 0.12500207E+03</pdfrwt>
<pdfrwt beam="2">  1       21 0.15046251E+00 0.12500207E+03</pdfrwt>
<totfact> 0.52151995E+05</totfact>
</mgrwt>
</event>
<event>
 9      1 +9.5563000e+06 1.25016200e+02 7.81860800e-03 1.23504400e-01
       21 -1    0    0  502  501 +0.0000000000e+00 +0.0000000000e+00 +2.2241631177e+01 2.2241631177e+01 0.0000000000e+00 0.0000e+00 -1.0000e+00
       21 -1    0    0  501  502 -0.0000000000e+00 -0.0000000000e+00 -1.7567335026e+02 1.7567335026e+02 0.0000000000e+00 0.0000e+00 -1.0000e+00
       25  2    1    2    0    0 +0.0000000000e+00 +8.8817841970e-16 -1.5343171908e+02 1.9791498143e+02 1.2501618878e+02 0.0000e+00 0.0000e+00
  9000006  2    3    3    0    0 -3.9038699284e+01 +2.2954995045e+00 -3.2559369883e+01 6.4725589343e+01 3.9999999862e+01 0.0000e+00 0.0000e+00
  9000006  2    3    3    0    0 +3.9038699284e+01 -2.2954995045e+00 -1.2087234920e+02 1.3318939209e+02 4.0000000065e+01 0.0000e+00 0.0000e+00
      -11  1    4    4    0    0 -3.6600791291e+01 -8.3862591373e+00 -8.8073500690e+00 3.8568337800e+01 0.0000000000e+00 0.0000e+00 1.0000e+00
       13  1    4    4    0    0 -2.4379079928e+00 +1.0681758642e+01 -2.3752019814e+01 2.6157251543e+01 0.0000000000e+00 0.0000e+00 1.0000e+00
      -11  1    5    5    0    0 +4.0359757012e+01 +5.3893317562e+00 -6.4478263446e+01 7.6258778773e+01 0.0000000000e+00 0.0000e+00 1.0000e+00
       13  1    5    5    0    0 -1.3210577288e+00 -7.6848312607e+00 -5.6394085750e+01 5.6930613317e+01 0.0000000000e+00 0.0000e+00 1.0000e+00
<mgrwt>
<rscale>  0 0.12501619E+03</rscale>
<asrwt>0</asrwt>
<pdfrwt beam="1">  1       21 0.55604080E-02 0.12501619E+03</pdfrwt>
<pdfrwt beam="2">  1       21 0.43918336E-01 0.12501619E+03</pdfrwt>
<totfact> 0.11189471E+06</totfact>
</mgrwt>
</event>
<event>
 9      1 +9.5563000e+06 1.25005000e+02 7.81860800e-03 1.23506100e-01
       21 -1    0    0  502  501 +0.0000000000e+00 +0.0000000000e+00 +6.3705664325e+01 6.3705664325e+01 0.0000000000e+00 0.0000e+00 1.0000e+00
       21 -1    0    0  501  502 -0.0000000000e+00 -0.0000000000e+00 -6.1322040251e+01 6.1322040251e+01 0.0000000000e+00 0.0000e+00 1.0000e+00
       25  2    1    2    0    0 +0.0000000000e+00 +0.0000000000e+00 +2.3836240737e+00 1.2502770458e+02 1.2500498089e+02 0.0000e+00 0.0000e+00
  9000006  2    3    3    0    0 -4.2144405901e+01 +2.2148105020e+01 -5.1237489401e+00 6.2393447571e+01 3.9999999899e+01 0.0000e+00 0.0000e+00
  9000006  2    3    3    0    0 +4.2144405901e+01 -2.2148105020e+01 +7.5073730138e+00 6.2634257005e+01 3.9999999953e+01 0.0000e+00 0.0000e+00
      -11  1    4    4    0    0 -4.1312744690e+01 +1.5742103297e+00 -6.0440637072e+00 4.1782193792e+01 0.0000000000e+00 0.0000e+00 1.0000e+00
       13  1    4    4    0    0 -8.3166121079e-01 +2.0573894690e+01 +9.2031476712e-01 2.0611253779e+01 0.0000000000e+00 0.0000e+00 1.0000e+00
      -11  1    5    5    0    0 +3.7153857630e+01 -3.0047806063e+01 -3.8365804609e+00 4.7937450241e+01 0.0000000000e+00 0.0000e+00 1.0000e+00
       13  1    5    5    0    0 +4.9905482711e+00 +7.8997010431e+00 +1.1343953475e+01 1.4696806764e+01 0.0000000000e+00 0.0000e+00 1.0000e+00
<mgrwt>
<rscale>  0 0.12500498E+03</rscale>
<asrwt>0</asrwt>
<pdfrwt beam="1">  1       21 0.15926416E-01 0.12500498E+03</pdfrwt>
<pdfrwt beam="2">  1       21 0.15330510E-01 0.12500498E+03</pdfrwt>
<totfact> 0.13224084E+06</totfact>
</mgrwt>
</event>
<event>
 9      1 +9.5563000e+06 1.24998700e+02 7.81860800e-03 1.23507100e-01
       21 -1    0    0  502  501 +0.0000000000e+00 +0.0000000000e+00 +3.3310100984e+02 3.3310100984e+02 0.0000000000e+00 0.0000e+00 1.0000e+00
       21 -1    0    0  501  502 -0.0000000000e+00 -0.0000000000e+00 -1.1726683644e+01 1.1726683644e+01 0.0000000000e+00 0.0000e+00 1.0000e+00
       25  2    1    2    0    0 +0.0000000000e+00 +0.0000000000e+00 +3.2137432620e+02 3.4482769349e+02 1.2499872262e+02 0.0000e+00 0.0000e+00
  9000006  2    3    3    0    0 +4.1233805100e+01 -2.2341045182e+01 +1.8919900601e+02 1.9898646392e+02 3.9999999607e+01 0.0000e+00 0.0000e+00
  9000006  2    3    3    0    0 -4.1233805100e+01 +2.2341045182e+01 +1.3217532019e+02 1.4584122956e+02 3.9999999870e+01 0.0000e+00 0.0000e+00
      -11  1    5    5    0    0 -4.7664610446e+00 +2.2593215262e+01 +7.0564668559e+01 7.4246514905e+01 0.0000000000e+00 0.0000e+00 1.0000e+00
       13  1    4    4    0    0 +4.0258355529e+01 -2.1657944440e+01 +1.9123757078e+02 1.9662555842e+02 0.0000000000e+00 0.0000e+00 1.0000e+00
      -11  1    4    4    0    0 +9.7544957050e-01 -6.8310074208e-01 -2.0385647693e+00 2.3609055058e+00 0.0000000000e+00 0.0000e+00 1.0000e+00
       13  1    5    5    0    0 -3.6467344055e+01 -2.5217007970e-01 +6.1610651634e+01 7.1594714658e+01 0.0000000000e+00 0.0000e+00 1.0000e+00
<mgrwt>
<rscale>  0 0.12499872E+03</rscale>
<asrwt>0</asrwt>
<pdfrwt beam="1">  1       21 0.83275221E-01 0.12499872E+03</pdfrwt>
<pdfrwt beam="2">  1       21 0.29316720E-02 0.12499872E+03</pdfrwt>
<totfact> 0.83036623E+05</totfact>
</mgrwt>
</event>
<event>
 9      1 +9.5563000e+06 1.25017400e+02 7.81860800e-03 1.23504200e-01
       21 -1    0    0  502  501 +0.0000000000e+00 +0.0000000000e+00 +1.4115090888e+02 1.4115090888e+02 0.0000000000e+00 0.0000e+00 1.0000e+00
       21 -1    0    0  501  502 -0.0000000000e+00 -0.0000000000e+00 -2.7681999702e+01 2.7681999702e+01 0.0000000000e+00 0.0000e+00 1.0000e+00
       25  2    1    2    0    0 -3.5527136788e-15 +0.0000000000e+00 +1.1346890918e+02 1.6883290858e+02 1.2501742947e+02 0.0000e+00 0.0000e+00
  9000006  2    3    3    0    0 +3.1532469493e+01 -2.9888132009e+01 +2.9066443923e+01 6.5821388780e+01 3.9999999892e+01 0.0000e+00 0.0000e+00
  9000006  2    3    3    0    0 -3.1532469493e+01 +2.9888132009e+01 +8.4402465257e+01 1.0301151980e+02 4.0000000044e+01 0.0000e+00 0.0000e+00
      -11  1    5    5    0    0 +8.7318214765e+00 +2.8530267074e-01 +1.6877168888e+01 1.9004339862e+01 0.0000000000e+00 0.0000e+00 1.0000e+00
       13  1    4    4    0    0 +8.8860879230e+00 -2.5564950706e+01 +3.2736291208e+01 4.2475805175e+01 0.0000000000e+00 0.0000e+00 1.0000e+00
      -11  1    4    4    0    0 +2.2646381570e+01 -4.3231813030e+00 -3.6698472852e+00 2.3345583606e+01 0.0000000000e+00 0.0000e+00 1.0000e+00
       13  1    5    5    0    0 -4.0264290969e+01 +2.9602829338e+01 +6.7525296369e+01 8.4007179942e+01 0.0000000000e+00 0.0000e+00 1.0000e+00
<mgrwt>
<rscale>  0 0.12501743E+03</rscale>
<asrwt>0</asrwt>
<pdfrwt beam="1">  1       21 0.35287725E-01 0.12501743E+03</pdfrwt>
<pdfrwt beam="2">  1       21 0.69205003E-02 0.12501743E+03</pdfrwt>
<totfact> 0.11936691E+06</totfact>
</mgrwt>
</event>
<event>
 9      1 +9.5563000e+06 1.25000800e+02 7.81860800e-03 1.23506800e-01
       21 -1    0    0  502  501 +0.0000000000e+00 +0.0000000000e+00 +1.3190189264e+01 1.3190189264e+01 0.0000000000e+00 0.0000e+00 1.0000e+00
       21 -1    0    0  501  502 -0.0000000000e+00 -0.0000000000e+00 -2.9615197627e+02 2.9615197627e+02 0.0000000000e+00 0.0000e+00 1.0000e+00
       25  2    1    2    0    0 +0.0000000000e+00 +7.1054273576e-15 -2.8296178700e+02 3.0934216553e+02 1.2500080988e+02 0.0000e+00 0.0000e+00
  9000006  2    3    3    0    0 +8.9160419954e+00 -3.8255514946e+01 -7.3108667014e+01 9.2129568746e+01 4.0000000201e+01 0.0000e+00 0.0000e+00
  9000006  2    3    3    0    0 -8.9160419954e+00 +3.8255514946e+01 -2.0985311999e+02 2.1721259679e+02 4.0000000051e+01 0.0000e+00 0.0000e+00
      -11  1    4    4    0    0 +1.3785215817e+01 -7.6730188799e+00 -3.8159085357e+00 1.6231714383e+01 0.0000000000e+00 0.0000e+00 1.0000e+00
       13  1    4    4    0    0 -4.8691738219e+00 -3.0582496066e+01 -6.9292758479e+01 7.5897854363e+01 0.0000000000e+00 0.0000e+00 1.0000e+00
      -11  1    5    5    0    0 +3.5423645242e+00 +3.5482986999e+01 -9.1979205969e+01 9.8649708785e+01 0.0000000000e+00 0.0000e+00 1.0000e+00
       13  1    5    5    0    0 -1.2458406520e+01 +2.7725279469e+00 -1.1787391402e+02 1.1856288800e+02 0.0000000000e+00 0.0000e+00 1.0000e+00
<mgrwt>
<rscale>  0 0.12500081E+03</rscale>
<asrwt>0</asrwt>
<pdfrwt beam="1">  1       21 0.32975473E-02 0.12500081E+03</pdfrwt>
<pdfrwt beam="2">  1       21 0.74037994E-01 0.12500081E+03</pdfrwt>
<totfact> 0.88922193E+05</totfact>
</mgrwt>
</event>
<event>
 9      1 +9.5563000e+06 1.24998500e+02 7.81860800e-03 1.23507200e-01
       21 -1    0    0  502  501 +0.0000000000e+00 +0.0000000000e+00 +1.8795275425e+02 1.8795275425e+02 0.0000000000e+00 0.0000e+00 1.0000e+00
       21 -1    0    0  501  502 -0.0000000000e+00 -0.0000000000e+00 -2.0782653580e+01 2.0782653580e+01 0.0000000000e+00 0.0000e+00 1.0000e+00
       25  2    1    2    0    0 +0.0000000000e+00 +3.5527136788e-15 +1.6717010067e+02 2.0873540783e+02 1.2499851169e+02 0.0000e+00 0.0000e+00
  9000006  2    3    3    0    0 +5.2849330872e+00 +2.6884025914e+01 +1.4944522604e+02 1.5711319805e+02 4.0000000574e+01 0.0000e+00 0.0000e+00
  9000006  2    3    3    0    0 -5.2849330872e+00 -2.6884025914e+01 +1.7724874629e+01 5.1622209787e+01 3.9999999945e+01 0.0000e+00 0.0000e+00
      -11  1    4    4    0    0 +1.8312706038e+01 +2.3120275751e+01 +6.2415099455e+01 6.9032941363e+01 0.0000000000e+00 0.0000e+00 1.0000e+00
       13  1    4    4    0    0 -1.3027772950e+01 +3.7637501628e+00 +8.7030126588e+01 8.8080256682e+01 0.0000000000e+00 0.0000e+00 1.0000e+00
      -11  1    5    5    0    0 -1.7304628081e+01 +5.8632542103e-01 +1.1297992841e+00 1.7351379684e+01 0.0000000000e+00 0.0000e+00 1.0000e+00
       13  1    5    5    0    0 +1.2019694994e+01 -2.7470351335e+01 +1.6595075345e+01 3.4270830103e+01 0.0000000000e+00 0.0000e+00 1.0000e+00
<mgrwt>
<rscale>  0 0.12499851E+03</rscale>
<asrwt>0</asrwt>
<pdfrwt beam="1">  1       21 0.46988183E-01 0.12499851E+03</pdfrwt>
<pdfrwt beam="2">  1       21 0.51956640E-02 0.12499851E+03</pdfrwt>
<totfact> 0.10934244E+06</totfact>
</mgrwt>
</event>
<event>
 9      1 +9.5563000e+06 1.25001300e+02 7.81860800e-03 1.23506700e-01
       21 -1    0    0  502  501 +0.0000000000e+00 +0.0000000000e+00 +4.8840968878e+02 4.8840968878e+02 0.0000000000e+00 0.0000e+00 1.0000e+00
       21 -1    0    0  501  502 -0.0000000000e+00 -0.0000000000e+00 -7.9980582067e+00 7.9980582067e+00 0.0000000000e+00 0.0000e+00 1.0000e+00
       25  2    1    2    0    0 +0.0000000000e+00 +3.5527136788e-15 +4.8041163057e+02 4.9640774698e+02 1.2500126591e+02 0.0000e+00 0.0000e+00
  9000006  2    3    3    0    0 -2.0386597567e+01 +1.2138857399e+01 +7.4392973205e+01 8.7734142085e+01 4.0000000071e+01 0.0000e+00 0.0000e+00
  9000006  2    3    3    0    0 +2.0386597567e+01 -1.2138857399e+01 +4.0601865736e+02 4.0867360490e+02 3.9999999915e+01 0.0000e+00 0.0000e+00
      -11  1    5    5    0    0 +1.5739570344e+01 -2.5784468157e+01 +3.2330172651e+02 3.2470999251e+02 0.0000000000e+00 0.0000e+00 1.0000e+00
       13  1    4    4    0    0 -2.6651930597e+01 +2.0295750298e+01 +4.1862202032e+01 5.3616106197e+01 0.0000000000e+00 0.0000e+00 1.0000e+00
      -11  1    4    4    0    0 +6.2653330299e+00 -8.1568928988e+00 +3.2530771173e+01 3.4118035888e+01 0.0000000000e+00 0.0000e+00 1.0000e+00
       13  1    5    5    0    0 +4.6470272232e+00 +1.3645610758e+01 +8.2716930853e+01 8.3963612385e+01 0.0000000000e+00 0.0000e+00 1.0000e+00
<mgrwt>
<rscale>  0 0.12500127E+03</rscale>
<asrwt>0</asrwt>
<pdfrwt beam="1">  1       21 0.12210232E+00 0.12500127E+03</pdfrwt>
<pdfrwt beam="2">  1       21 0.19995162E-02 0.12500127E+03</pdfrwt>
<totfact> 0.63061385E+05</totfact>
</mgrwt>
</event>
<event>
 9      1 +9.5563000e+06 1.24995400e+02 7.81860800e-03 1.23507600e-01
       21 -1    0    0  502  501 +0.0000000000e+00 +0.0000000000e+00 +7.1929146810e+02 7.1929146810e+02 0.0000000000e+00 0.0000e+00 -1.0000e+00
       21 -1    0    0  501  502 -0.0000000000e+00 -0.0000000000e+00 -5.4302928285e+00 5.4302928285e+00 0.0000000000e+00 0.0000e+00 -1.0000e+00
       25  2    1    2    0    0 +3.5527136788e-15 +1.7763568394e-15 +7.1386117527e+02 7.2472176093e+02 1.2499541273e+02 0.0000e+00 0.0000e+00
  9000006  2    3    3    0    0 -3.1835200290e+01 +1.3725061623e+00 +1.4863839945e+02 1.5719013180e+02 3.9999999919e+01 0.0000e+00 0.0000e+00
  9000006  2    3    3    0    0 +3.1835200290e+01 -1.3725061623e+00 +5.6522277582e+02 5.6753162913e+02 4.0000000042e+01 0.0000e+00 0.0000e+00
      -11  1    5    5    0    0 +1.0309422346e+01 -1.6517058303e+01 +1.2349490498e+02 1.2502035418e+02 0.0000000000e+00 0.0000e+00 1.0000e+00
       13  1    4    4    0    0 -2.5578225229e+01 -1.6467367267e+01 +1.1067768345e+02 1.1478226955e+02 0.0000000000e+00 0.0000e+00 1.0000e+00
      -11  1    4    4    0    0 -6.2569750618e+00 +1.7839873430e+01 +3.7960716008e+01 4.2407862252e+01 0.0000000000e+00 0.0000e+00 1.0000e+00
       13  1    5    5    0    0 +2.1525777944e+01 +1.5144552140e+01 +4.4172787084e+02 4.4251127495e+02 0.0000000000e+00 0.0000e+00 1.0000e+00
<mgrwt>
<rscale>  0 0.12499541E+03</rscale>
<asrwt>0</asrwt>
<pdfrwt beam="1">  1       21 0.17982254E+00 0.12499541E+03</pdfrwt>
<pdfrwt beam="2">  1       21 0.13575757E-02 0.12499541E+03</pdfrwt>
<totfact> 0.43056865E+05</totfact>
</mgrwt>
</event>
<event>
 9      1 +9.5563000e+06 1.25023200e+02 7.81860800e-03 1.23503300e-01
       21 -1    0    0  502  501 +0.0000000000e+00 +0.0000000000e+00 +3.4784824374e+02 3.4784824374e+02 0.0000000000e+00 0.0000e+00 -1.0000e+00
       21 -1    0    0  501  502 -0.0000000000e+00 -0.0000000000e+00 -1.1233918830e+01 1.1233918830e+01 0.0000000000e+00 0.0000e+00 -1.0000e+00
       25  2    1    2    0    0 +0.0000000000e+00 +0.0000000000e+00 +3.3661432491e+02 3.5908216257e+02 1.2502318081e+02 0.0000e+00 0.0000e+00
  9000006  2    3    3    0    0 +2.5325037069e+01 -3.8923165089e+01 +2.0363881361e+02 2.1266202435e+02 3.9999998840e+01 0.0000e+00 0.0000e+00
  9000006  2    3    3    0    0 -2.5325037069e+01 +3.8923165089e+01 +1.3297551130e+02 1.4642013822e+02 3.9999999862e+01 0.0000e+00 0.0000e+00
      -11  1    5    5    0    0 +4.0167059351e+00 -4.0884017816e+00 +3.1431211858e+00 6.5366785515e+00 0.0000000000e+00 0.0000e+00 1.0000e+00
       13  1    4    4    0    0 +9.7049259882e+00 +7.5230979845e+00 +3.9496410010e+01 4.1361201571e+01 0.0000000000e+00 0.0000e+00 1.0000e+00
      -11  1    4    4    0    0 +1.5620111081e+01 -4.6446263073e+01 +1.6414240360e+02 1.7130082278e+02 0.0000000000e+00 0.0000e+00 1.0000e+00
       13  1    5    5    0    0 -2.9341743004e+01 +4.3011566871e+01 +1.2983239011e+02 1.3988345967e+02 0.0000000000e+00 0.0000e+00 1.0000e+00
<mgrwt>
<rscale>  0 0.12502318E+03</rscale>
<asrwt>0</asrwt>
<pdfrwt beam="1">  1       21 0.86962025E-01 0.12502318E+03</pdfrwt>
<pdfrwt beam="2">  1       21 0.28084809E-02 0.12502318E+03</pdfrwt>
<totfact> 0.80772336E+05</totfact>
</mgrwt>
</event>
<event>
 9      1 +9.5563000e+06 1.24997900e+02 7.81860800e-03 1.23507300e-01
       21 -1    0    0  502  501 +0.0000000000e+00 +0.0000000000e+00 +1.6002926997e+02 1.6002926997e+02 0.0000000000e+00 0.0000e+00 1.0000e+00
       21 -1    0    0  501  502 -0.0000000000e+00 -0.0000000000e+00 -2.4408775096e+01 2.4408775096e+01 0.0000000000e+00 0.0000e+00 1.0000e+00
       25  2    1    2    0    0 +0.0000000000e+00 +7.1054273576e-15 +1.3562049487e+02 1.8443804506e+02 1.2499789533e+02 0.0000e+00 0.0000e+00
  9000006  2    3    3    0    0 -3.7726912082e+00 +3.8167548906e+01 +1.1045083231e+02 1.2357338448e+02 4.0000000044e+01 0.0000e+00 0.0000e+00
  9000006  2    3    3    0    0 +3.7726912082e+00 -3.8167548906e+01 +2.5169662556e+01 6.0864660586e+01 4.0000000083e+01 0.0000e+00 0.0000e+00
      -11  1    4    4    0    0 +2.3084012329e+00 +1.3742472308e+01 +4.4548468620e+00 1.4629761514e+01 0.0000000000e+00 0.0000e+00 1.0000e+00
       13  1    4    4    0    0 -6.0810924411e+00 +2.4425076598e+01 +1.0599598545e+02 1.0894362296e+02 0.0000000000e+00 0.0000e+00 1.0000e+00
      -11  1    5    5    0    0 -9.8246328861e+00 -2.3483034082e+01 +3.0912002141e+01 4.0044077932e+01 0.0000000000e+00 0.0000e+00 1.0000e+00
       13  1    5    5    0    0 +1.3597324094e+01 -1.4684514825e+01 -5.7423395852e+00 2.0820582655e+01 0.0000000000e+00 0.0000e+00 1.0000e+00
<mgrwt>
<rscale>  0 0.12499790E+03</rscale>
<asrwt>0</asrwt>
<pdfrwt beam="1">  1       21 0.40007314E-01 0.12499790E+03</pdfrwt>
<pdfrwt beam="2">  1       21 0.61021942E-02 0.12499790E+03</pdfrwt>
<totfact> 0.11533086E+06</totfact>
</mgrwt>
</event>
<event>
 9      1 +9.5563000e+06 1.25000800e+02 7.81860800e-03 1.23506800e-01
       21 -1    0    0  502  501 +0.0000000000e+00 +0.0000000000e+00 +9.8636118348e+01 9.8636118348e+01 0.0000000000e+00 0.0000e+00 1.0000e+00
       21 -1    0    0  501  502 -0.0000000000e+00 -0.0000000000e+00 -3.9603149338e+01 3.9603149338e+01 0.0000000000e+00 0.0000e+00 1.0000e+00
       25  2    1    2    0    0 -3.5527136788e-15 -8.8817841970e-16 +5.9032969010e+01 1.3823926769e+02 1.2500081480e+02 0.0000e+00 0.0000e+00
  9000006  2    3    3    0    0 -2.5504391943e+01 +2.3618260682e-01 +7.4517129071e+01 8.8336472049e+01 3.9999999730e+01 0.0000e+00 0.0000e+00
  9000006  2    3    3    0    0 +2.5504391943e+01 -2.3618260682e-01 -1.5484160061e+01 4.9902795637e+01 4.0000000112e+01 0.0000e+00 0.0000e+00
      -11  1    5    5    0    0 -4.0446093089e+00 -1.4061065640e+01 -2.7783235176e+00 1.4892666415e+01 0.0000000000e+00 0.0000e+00 1.0000e+00
       13  1    4    4    0    0 +4.2014198737e+00 +4.4631573146e+00 +4.7705297185e+01 4.8097474795e+01 0.0000000000e+00 0.0000e+00 1.0000e+00
      -11  1    4    4    0    0 -2.9705811817e+01 -4.2269747078e+00 +2.6811831886e+01 4.0238997253e+01 0.0000000000e+00 0.0000e+00 1.0000e+00
       13  1    5    5    0    0 +2.9549001252e+01 +1.3824883033e+01 -1.2705836543e+01 3.5010129222e+01 0.0000000000e+00 0.0000e+00 1.0000e+00
<mgrwt>
<rscale>  0 0.12500081E+03</rscale>
<asrwt>0</asrwt>
<pdfrwt beam="1">  1       21 0.24659029E-01 0.12500081E+03</pdfrwt>
<pdfrwt beam="2">  1       21 0.99007875E-02 0.12500081E+03</pdfrwt>
<totfact> 0.12816434E+06</totfact>
</mgrwt>
</event>
<event>
 9      1 +9.5563000e+06 1.25000300e+02 7.81860800e-03 1.23506900e-01
       21 -1    0    0  502  501 +0.0000000000e+00 +0.0000000000e+00 +2.9112007224e+01 2.9112007224e+01 0.0000000000e+00 0.0000e+00 1.0000e+00
       21 -1    0    0  501  502 -0.0000000000e+00 -0.0000000000e+00 -1.3418069285e+02 1.3418069285e+02 0.0000000000e+00 0.0000e+00 1.0000e+00
       25  2    1    2    0    0 -3.5527136788e-15 +1.7763568394e-15 -1.0506868562e+02 1.6329270007e+02 1.2500030879e+02 0.0000e+00 0.0000e+00
  9000006  2    3    3    0    0 -1.9788572245e+01 -7.6518517568e+00 +3.7464209259e+00 4.5433182723e+01 3.9999999947e+01 0.0000e+00 0.0000e+00
  9000006  2    3    3    0    0 +1.9788572245e+01 +7.6518517568e+00 -1.0881510655e+02 1.1785951735e+02 3.9999999868e+01 0.0000e+00 0.0000e+00
      -11  1    5    5    0    0 +2.7359749802e+01 +1.0602770043e+01 -4.6274949971e+01 5.4793664201e+01 0.0000000000e+00 0.0000e+00 1.0000e+00
       13  1    4    4    0    0 +9.1594321003e+00 -4.4745120204e+00 -9.0428248187e+00 1.3626780064e+01 0.0000000000e+00 0.0000e+00 1.0000e+00
      -11  1    4    4    0    0 -2.8948004345e+01 -3.1773397364e+00 +1.2789245745e+01 3.1806402658e+01 0.0000000000e+00 0.0000e+00 1.0000e+00
       13  1    5    5    0    0 -7.5711775568e+00 -2.9509182861e+00 -6.2540156579e+01 6.3065853148e+01 0.0000000000e+00 0.0000e+00 1.0000e+00
<mgrwt>
<rscale>  0 0.12500031E+03</rscale>
<asrwt>0</asrwt>
<pdfrwt beam="1">  1       21 0.72780018E-02 0.12500031E+03</pdfrwt>
<pdfrwt beam="2">  1       21 0.33545173E-01 0.12500031E+03</pdfrwt>
<totfact> 0.12093143E+06</totfact>
</mgrwt>
</event>
<event>
 9      1 +9.5563000e+06 1.24986700e+02 7.81860800e-03 1.23509000e-01
       21 -1    0    0  502  501 +0.0000000000e+00 +0.0000000000e+00 +2.6175598757e+02 2.6175598757e+02 0.0000000000e+00 0.0000e+00 -1.0000e+00
       21 -1    0    0  501  502 -0.0000000000e+00 -0.0000000000e+00 -1.4920066593e+01 1.4920066593e+01 0.0000000000e+00 0.0000e+00 -1.0000e+00
       25  2    1    2    0    0 +0.0000000000e+00 +3.5527136788e-15 +2.4683592098e+02 2.7667605417e+02 1.2498666754e+02 0.0000e+00 0.0000e+00
  9000006  2    3    3    0    0 -4.4602259188e+01 -1.7711286081e+01 +1.2682264697e+02 1.4137551048e+02 4.0000000008e+01 0.0000e+00 0.0000e+00
  9000006  2    3    3    0    0 +4.4602259188e+01 +1.7711286081e+01 +1.2001327401e+02 1.3530054368e+02 4.0000000040e+01 0.0000e+00 0.0000e+00
      -11  1    4    4    0    0 -1.3637040007e+01 +1.0114720009e+01 +6.2427673157e+01 6.4695369206e+01 0.0000000000e+00 0.0000e+00 1.0000e+00
       13  1    4    4    0    0 -3.0965219181e+01 -2.7826006089e+01 +6.4394973815e+01 7.6680141278e+01 0.0000000000e+00 0.0000e+00 1.0000e+00
      -11  1    5    5    0    0 +4.3226640508e+01 +2.3040599748e+01 +1.2019546974e+02 1.2979353849e+02 0.0000000000e+00 0.0000e+00 1.0000e+00
       13  1    5    5    0    0 +1.3756186796e+00 -5.3293136668e+00 -1.8219573630e-01 5.5070051931e+00 0.0000000000e+00 0.0000e+00 1.0000e+00
<mgrwt>
<rscale>  0 0.12498667E+03</rscale>
<asrwt>0</asrwt>
<pdfrwt beam="1">  1       21 0.65438982E-01 0.12498667E+03</pdfrwt>
<pdfrwt beam="2">  1       21 0.37300175E-02 0.12498667E+03</pdfrwt>
<totfact> 0.94927079E+05</totfact>
</mgrwt>
</event>
<event>
 9      1 +9.5563000e+06 1.24999100e+02 7.81860800e-03 1.23507100e-01
       21 -1    0    0  502  501 +0.0000000000e+00 +0.0000000000e+00 +7.3255479210e+01 7.3255479210e+01 0.0000000000e+00 0.0000e+00 1.0000e+00
       21 -1    0    0  501  502 -0.0000000000e+00 -0.0000000000e+00 -5.3322876136e+01 5.3322876136e+01 0.0000000000e+00 0.0000e+00 1.0000e+00
       25  2    1    2    0    0 -3.5527136788e-15 +0.0000000000e+00 +1.9932603074e+01 1.2657835535e+02 1.2499908550e+02 0.0000e+00 0.0000e+00
  9000006  2    3    3    0    0 +2.4538502089e+01 -2.3417051148e+01 -2.4458742677e+01 5.7868181759e+01 3.9999999969e+01 0.0000e+00 0.0000e+00
  9000006  2    3    3    0    0 -2.4538502089e+01 +2.3417051148e+01 +4.4391345751e+01 6.8710173587e+01 4.0000000095e+01 0.0000e+00 0.0000e+00
      -11  1    4    4    0    0 -1.0701900878e+01 -1.2105990201e+00 -4.3606845940e+00 1.1619457927e+01 0.0000000000e+00 0.0000e+00 1.0000e+00
       13  1    4    4    0    0 +3.5240402967e+01 -2.2206452128e+01 -2.0098058083e+01 4.6248723832e+01 0.0000000000e+00 0.0000e+00 1.0000e+00
      -11  1    5    5    0    0 -3.4573539312e+01 +1.8364155458e+01 +4.1619290027e+01 5.7137878229e+01 0.0000000000e+00 0.0000e+00 1.0000e+00
       13  1    5    5    0    0 +1.0035037223e+01 +5.0528956903e+00 +2.7720557244e+00 1.1572295358e+01 0.0000000000e+00 0.0000e+00 1.0000e+00
<mgrwt>
<rscale>  0 0.12499909E+03</rscale>
<asrwt>0</asrwt>
<pdfrwt beam="1">  1       21 0.18313870E-01 0.12499909E+03</pdfrwt>
<pdfrwt beam="2">  1       21 0.13330719E-01 0.12499909E+03</pdfrwt>
<totfact> 0.13178019E+06</totfact>
</mgrwt>
</event>
<event>
 9      1 +9.5563000e+06 1.25005900e+02 7.81860800e-03 1.23506000e-01
       21 -1    0    0  502  501 +0.0000000000e+00 +0.0000000000e+00 +1.3775026378e+02 1.3775026378e+02 0.0000000000e+00 0.0000e+00 1.0000e+00
       21 -1    0    0  501  502 -0.0000000000e+00 -0.0000000000e+00 -2.8360160789e+01 2.8360160789e+01 0.0000000000e+00 0.0000e+00 1.0000e+00
       25  2    1    2    0    0 +1.7763568394e-15 -7.1054273576e-15 +1.0939010299e+02 1.6611042457e+02 1.2500591393e+02 0.0000e+00 0.0000e+00
  9000006  2    3    3    0    0 -7.4952694087e+00 +4.7205431461e+01 +6.0940197201e+01 8.7167880902e+01 4.0000000038e+01 0.0000e+00 0.0000e+00
  9000006  2    3    3    0    0 +7.4952694087e+00 -4.7205431461e+01 +4.8449905787e+01 7.8942543665e+01 4.0000000083e+01 0.0000e+00 0.0000e+00
      -11  1    5    5    0    0 +1.6527553815e+01 -5.0131715927e+01 +3.9952622780e+01 6.6200914222e+01 0.0000000000e+00 0.0000e+00 1.0000e+00
       13  1    4    4    0    0 -1.0691363677e+00 +3.6715242265e+01 +1.5113400525e+01 3.9718596937e+01 0.0000000000e+00 0.0000e+00 1.0000e+00
      -11  1    4    4    0    0 -6.4261330410e+00 +1.0490189196e+01 +4.5826796676e+01 4.7449283965e+01 0.0000000000e+00 0.0000e+00 1.0000e+00
       13  1    5    5    0    0 -9.0322844062e+00 +2.9262844655e+00 +8.4972830075e+00 1.2741629444e+01 0.0000000000e+00 0.0000e+00 1.0000e+00
<mgrwt>
<rscale>  0 0.12500591E+03</rscale>
<asrwt>0</asrwt>
<pdfrwt beam="1">  1       21 0.34437564E-01 0.12500591E+03</pdfrwt>
<pdfrwt beam="2">  1       21 0.70900406E-02 0.12500591E+03</pdfrwt>
<totfact> 0.12014136E+06</totfact>
</mgrwt>
</event>
<event>
 9      1 +9.5563000e+06 1.24996200e+02 7.81860800e-03 1.23507500e-01
       21 -1    0    0  502  501 +0.0000000000e+00 +0.0000000000e+00 +1.1971308247e+02 1.1971308247e+02 0.0000000000e+00 0.0000e+00 1.0000e+00
       21 -1    0    0  501  502 -0.0000000000e+00 -0.0000000000e+00 -3.2628138380e+01 3.2628138380e+01 0.0000000000e+00 0.0000e+00 1.0000e+00
       25  2    1    2    0    0 +0.0000000000e+00 +0.0000000000e+00 +8.7084944085e+01 1.5234122085e+02 1.2499624027e+02 0.0000e+00 0.0000e+00
  9000006  2    3    3    0    0 +2.9895656638e+01 +1.6716461142e+01 +8.4563054989e+01 9.9619780365e+01 4.0000000149e+01 0.0000e+00 0.0000e+00
  9000006  2    3    3    0    0 -2.9895656638e+01 -1.6716461142e+01 +2.5218890965e+00 5.2721440481e+01 4.0000000036e+01 0.0000e+00 0.0000e+00
      -11  1    4    4    0    0 -5.8215031612e+00 +6.1266117576e+00 +1.4978741582e+00 8.5830587601e+00 0.0000000000e+00 0.0000e+00 1.0000e+00
       13  1    4    4    0    0 +3.5717159799e+01 +1.0589849385e+01 +8.3065180831e+01 9.1036721605e+01 0.0000000000e+00 0.0000e+00 1.0000e+00
      -11  1    5    5    0    0 -2.0876514943e+01 -9.5428666966e+00 +2.0890420730e+01 3.1037152885e+01 0.0000000000e+00 0.0000e+00 1.0000e+00
       13  1    5    5    0    0 -9.0191416947e+00 -7.1735944456e+00 -1.8368531633e+01 2.1684287596e+01 0.0000000000e+00 0.0000e+00 1.0000e+00
<mgrwt>
<rscale>  0 0.12499624E+03</rscale>
<asrwt>0</asrwt>
<pdfrwt beam="1">  1       21 0.29928270E-01 0.12499624E+03</pdfrwt>
<pdfrwt beam="2">  1       21 0.81570349E-02 0.12499624E+03</pdfrwt>
<totfact> 0.12402835E+06</totfact>
</mgrwt>
</event>
<event>
 9      1 +9.5563000e+06 1.24998300e+02 7.81860800e-03 1.23507200e-01
       21 -1    0    0  502  501 +0.0000000000e+00 +0.0000000000e+00 +1.2769629756e+03 1.2769629756e+03 0.0000000000e+00 0.0000e+00 1.0000e+00
       21 -1    0    0  501  502 -0.0000000000e+00 -0.0000000000e+00 -3.0589315975e+00 3.0589315975e+00 0.0000000000e+00 0.0000e+00 1.0000e+00
       25  2    1    2    0    0 -1.7763568394e-15 +0.0000000000e+00 +1.2739040440e+03 1.2800219072e+03 1.2499827830e+02 0.0000e+00 0.0000e+00
  9000006  2    3    3    0    0 -1.2404742935e+01 -4.6248369247e+01 +5.9953198379e+02 6.0276976442e+02 4.0000000012e+01 0.0000e+00 0.0000e+00
  9000006  2    3    3    0    0 +1.2404742935e+01 +4.6248369247e+01 +6.7437206017e+02 6.7725214274e+02 4.0000000027e+01 0.0000e+00 0.0000e+00
      -11  1    5    5    0    0 -1.0918356161e+01 +7.0204379732e+00 +7.2545822767e+01 7.3697988110e+01 0.0000000000e+00 0.0000e+00 1.0000e+00
       13  1    4    4    0    0 +4.3711722867e+00 -2.4327774960e+01 +1.2412486797e+02 1.2656196360e+02 0.0000000000e+00 0.0000e+00 1.0000e+00
      -11  1    4    4    0    0 -1.6775915222e+01 -2.1920594287e+01 +4.7540711582e+02 4.7620780081e+02 0.0000000000e+00 0.0000e+00 1.0000e+00
       13  1    5    5    0    0 +2.3323099096e+01 +3.9227931274e+01 +6.0182623741e+02 6.0355415463e+02 0.0000000000e+00 0.0000e+00 1.0000e+00
<mgrwt>
<rscale>  0 0.12499828E+03</rscale>
<asrwt>0</asrwt>
<pdfrwt beam="1">  1       21 0.31923892E+00 0.12499828E+03</pdfrwt>
<pdfrwt beam="2">  1       21 0.76473728E-03 0.12499828E+03</pdfrwt>
<totfact> 0.16168359E+05</totfact>
</mgrwt>
</event>
<event>
 9      1 +9.5563000e+06 1.24989600e+02 7.81860800e-03 1.23508600e-01
       21 -1    0    0  502  501 +0.0000000000e+00 +0.0000000000e+00 +3.9740611814e+01 3.9740611814e+01 0.0000000000e+00 0.0000e+00 -1.0000e+00
       21 -1    0    0  501  502 -0.0000000000e+00 -0.0000000000e+00 -9.8277272251e+01 9.8277272251e+01 0.0000000000e+00 0.0000e+00 -1.0000e+00
       25  2    1    2    0    0 -7.1054273576e-15 +0.0000000000e+00 -5.8536660438e+01 1.3801788407e+02 1.2498958239e+02 0.0000e+00 0.0000e+00
  9000006  2    3    3    0    0 -2.9275985145e+01 +3.5993044398e+01 -4.2927694693e+01 7.4802202738e+01 4.0000000145e+01 0.0000e+00 0.0000e+00
  9000006  2    3    3    0    0 +2.9275985145e+01 -3.5993044398e+01 -1.5608965745e+01 6.3215681327e+01 4.0000000035e+01 0.0000e+00 0.0000e+00
      -11  1    5    5    0    0 +7.8090184601e+00 +1.4813398130e+00 +1.0179140336e+01 1.2914721636e+01 0.0000000000e+00 0.0000e+00 1.0000e+00
       13  1    4    4    0    0 -4.6025625772e+00 +2.1020407900e+01 -4.0471980826e+01 4.5836910482e+01 0.0000000000e+00 0.0000e+00 1.0000e+00
      -11  1    4    4    0    0 -2.4673422568e+01 +1.4972636498e+01 -2.4557138672e+00 2.8965292256e+01 0.0000000000e+00 0.0000e+00 1.0000e+00
       13  1    5    5    0    0 +2.1466966685e+01 -3.7474384211e+01 -2.5788106081e+01 5.0300959691e+01 0.0000000000e+00 0.0000e+00 1.0000e+00
<mgrwt>
<rscale>  0 0.12498958E+03</rscale>
<asrwt>0</asrwt>
<pdfrwt beam="1">  1       21 0.99351530E-02 0.12498958E+03</pdfrwt>
<pdfrwt beam="2">  1       21 0.24569318E-01 0.12498958E+03</pdfrwt>
<totfact> 0.12826893E+06</totfact>
</mgrwt>
</event>
<event>
 9      1 +9.5563000e+06 1.25001300e+02 7.81860800e-03 1.23506700e-01
       21 -1    0    0  502  501 +0.0000000000e+00 +0.0000000000e+00 +1.2642124417e+02 1.2642124417e+02 0.0000000000e+00 0.0000e+00 -1.0000e+00
       21 -1    0    0  501  502 -0.0000000000e+00 -0.0000000000e+00 -3.0899319490e+01 3.0899319490e+01 0.0000000000e+00 0.0000e+00 -1.0000e+00
       25  2    1    2    0    0 -3.5527136788e-15 -7.1054273576e-15 +9.5521924683e+01 1.5732056366e+02 1.2500128662e+02 0.0000e+00 0.0000e+00
  9000006  2    3    3    0    0 +2.4810930861e+01 +4.1093527966e+01 +4.9571748316e+01 7.9759755039e+01 3.9999999523e+01 0.0000e+00 0.0000e+00
  9000006  2    3    3    0    0 -2.4810930861e+01 -4.1093527966e+01 +4.5950176367e+01 7.7560808625e+01 3.9999999943e+01 0.0000e+00 0.0000e+00
      -11  1    5    5    0    0 -1.3091117710e+01 +5.3353644836e+00 +1.4620217367e+01 2.0337016323e+01 0.0000000000e+00 0.0000e+00 1.0000e+00
       13  1    4    4    0    0 -6.1293938345e+00 +6.2007610840e-01 -2.7375219691e+00 6.7415124186e+00 0.0000000000e+00 0.0000e+00 1.0000e+00
      -11  1    4    4    0    0 +3.0940324695e+01 +4.0473451858e+01 +5.2309270285e+01 7.3018242620e+01 0.0000000000e+00 0.0000e+00 1.0000e+00
       13  1    5    5    0    0 -1.1719813151e+01 -4.6428892450e+01 +3.1329959000e+01 5.7223792301e+01 0.0000000000e+00 0.0000e+00 1.0000e+00
<mgrwt>
<rscale>  0 0.12500129E+03</rscale>
<asrwt>0</asrwt>
<pdfrwt beam="1">  1       21 0.31605310E-01 0.12500129E+03</pdfrwt>
<pdfrwt beam="2">  1       21 0.77248302E-02 0.12500129E+03</pdfrwt>
<totfact> 0.12259340E+06</totfact>
</mgrwt>
</event>
<event>
 9      1 +9.5563000e+06 1.25001300e+02 7.81860800e-03 1.23506700e-01
       21 -1    0    0  502  501 +0.0000000000e+00 +0.0000000000e+00 +3.1306587879e+01 3.1306587879e+01 0.0000000000e+00 0.0000e+00 -1.0000e+00
       21 -1    0    0  501  502 -0.0000000000e+00 -0.0000000000e+00 -1.2477658237e+02 1.2477658237e+02 0.0000000000e+00 0.0000e+00 -1.0000e+00
       25  2    1    2    0    0 +0.0000000000e+00 +0.0000000000e+00 -9.3469994486e+01 1.5608317024e+02 1.2500126465e+02 0.0000e+00 0.0000e+00
  9000006  2    3    3    0    0 -4.1986314855e+01 -1.7275161583e+01 -6.6281386097e+01 8.9746888470e+01 4.0000000054e+01 0.0000e+00 0.0000e+00
  9000006  2    3    3    0    0 +4.1986314855e+01 +1.7275161583e+01 -2.7188608389e+01 6.6336281775e+01 4.0000000134e+01 0.0000e+00 0.0000e+00
      -11  1    4    4    0    0 -2.1221644343e+00 -2.0409275123e+01 -2.2128343544e+01 3.0177900539e+01 0.0000000000e+00 0.0000e+00 1.0000e+00
       13  1    4    4    0    0 -3.9864150421e+01 +3.1341135399e+00 -4.4153042553e+01 5.9568987931e+01 0.0000000000e+00 0.0000e+00 1.0000e+00
      -11  1    5    5    0    0 +4.6990036785e+01 +7.4897910680e+00 -1.4926029225e+01 4.9869297927e+01 0.0000000000e+00 0.0000e+00 1.0000e+00
       13  1    5    5    0    0 -5.0037219303e+00 +9.7853705155e+00 -1.2262579164e+01 1.6466983848e+01 0.0000000000e+00 0.0000e+00 1.0000e+00
<mgrwt>
<rscale>  0 0.12500126E+03</rscale>
<asrwt>0</asrwt>
<pdfrwt beam="1">  1       21 0.78266471E-02 0.12500126E+03</pdfrwt>
<pdfrwt beam="2">  1       21 0.31194145E-01 0.12500126E+03</pdfrwt>
<totfact> 0.12294336E+06</totfact>
</mgrwt>
</event>
<event>
 9      1 +9.5563000e+06 1.24998900e+02 7.81860800e-03 1.23507100e-01
       21 -1    0    0  502  501 +0.0000000000e+00 +0.0000000000e+00 +6.0643732838e+00 6.0643732838e+00 0.0000000000e+00 0.0000e+00 -1.0000e+00
       21 -1    0    0  501  502 -0.0000000000e+00 -0.0000000000e+00 -6.4411918605e+02 6.4411918605e+02 0.0000000000e+00 0.0000e+00 -1.0000e+00
       25  2    1    2    0    0 +0.0000000000e+00 +7.1054273576e-15 -6.3805481277e+02 6.5018355934e+02 1.2499886693e+02 0.0000e+00 0.0000e+00
  9000006  2    3    3    0    0 -3.1335459014e+01 +2.2121987997e+01 -4.6932203307e+02 4.7258275897e+02 4.0000000036e+01 0.0000e+00 0.0000e+00
  9000006  2    3    3    0    0 +3.1335459014e+01 -2.2121987997e+01 -1.6873277970e+02 1.7760080037e+02 4.0000000032e+01 0.0000e+00 0.0000e+00
      -11  1    5    5    0    0 +6.8675297255e+00 -2.8675979916e+01 -7.7609813165e+01 8.3022634794e+01 0.0000000000e+00 0.0000e+00 1.0000e+00
       13  1    4    4    0    0 -3.0336387256e+01 +1.7783392874e+01 -4.6516285494e+02 4.6649011465e+02 0.0000000000e+00 0.0000e+00 1.0000e+00
      -11  1    4    4    0    0 -9.9907175849e-01 +4.3385951232e+00 -4.1591781347e+00 6.0926443174e+00 0.0000000000e+00 0.0000e+00 1.0000e+00
       13  1    5    5    0    0 +2.4467929289e+01 +6.5539919191e+00 -9.1122966535e+01 9.4578165577e+01 0.0000000000e+00 0.0000e+00 1.0000e+00
<mgrwt>
<rscale>  0 0.12499887E+03</rscale>
<asrwt>0</asrwt>
<pdfrwt beam="1">  1       21 0.15160936E-02 0.12499887E+03</pdfrwt>
<pdfrwt beam="2">  1       21 0.16102977E+00 0.12499887E+03</pdfrwt>
<totfact> 0.48663172E+05</totfact>
</mgrwt>
</event>
<event>
 8      1 +9.5563000e+06 1.24991800e+02 7.81860800e-03 1.23508200e-01
       21 -1    0    0  502  501 +0.0000000000e+00 +0.0000000000e+00 +5.6624232313e+02 5.6624232313e+02 0.0000000000e+00 0.0000e+00 -1.0000e+00
       21 -1    0    0  501  502 -0.0000000000e+00 -0.0000000000e+00 -6.8976435075e+00 6.8976435075e+00 0.0000000000e+00 0.0000e+00 -1.0000e+00
       25  2    1    2    0    0 +0.0000000000e+00 -3.5527136788e-15 +5.5934467962e+02 5.7313996663e+02 1.2499180267e+02 0.0000e+00 0.0000e+00
  9000006  2    3    3    0    0 +2.1533856812e+01 -2.1948146133e+01 +1.1055114541e+02 1.2151947919e+02 3.9999999559e+01 0.0000e+00 0.0000e+00
      -11  1    4    4    0    0 -5.4782586411e+00 -1.1388904598e+01 +8.0261056415e+00 1.4971200268e+01 0.0000000000e+00 0.0000e+00 1.0000e+00
       13  1    4    4    0    0 +2.7012115453e+01 -1.0559241535e+01 +1.0252503977e+02 1.0654827893e+02 0.0000000000e+00 0.0000e+00 1.0000e+00
      -11  1    3    3    0    0 +9.8020071326e+00 -1.7762892974e+00 +1.3657071681e+02 1.3693354314e+02 0.0000000000e+00 0.0000e+00 1.0000e+00
       13  1    3    3    0    0 -3.1335863944e+01 +2.3724435431e+01 +3.1222281740e+02 3.1468694430e+02 0.0000000000e+00 0.0000e+00 1.0000e+00
<mgrwt>
<rscale>  0 0.12499180E+03</rscale>
<asrwt>0</asrwt>
<pdfrwt beam="1">  1       21 0.14156042E+00 0.12499180E+03</pdfrwt>
<pdfrwt beam="2">  1       21 0.17244128E-02 0.12499180E+03</pdfrwt>
<totfact> 0.55330787E+05</totfact>
</mgrwt>
</event>
<event>
 9      1 +9.5563000e+06 1.24997900e+02 7.81860800e-03 1.23507200e-01
       21 -1    0    0  502  501 +0.0000000000e+00 +0.0000000000e+00 +1.5573116178e+02 1.5573116178e+02 0.0000000000e+00 0.0000e+00 1.0000e+00
       21 -1    0    0  501  502 -0.0000000000e+00 -0.0000000000e+00 -2.5082467344e+01 2.5082467344e+01 0.0000000000e+00 0.0000e+00 1.0000e+00
       25  2    1    2    0    0 +0.0000000000e+00 +0.0000000000e+00 +1.3064869444e+02 1.8081362913e+02 1.2499794846e+02 0.0000e+00 0.0000e+00
  9000006  2    3    3    0    0 -3.8569113920e+01 +1.0984054770e+01 +1.0353844084e+02 1.1801878976e+02 3.9999999976e+01 0.0000e+00 0.0000e+00
  9000006  2    3    3    0    0 +3.8569113920e+01 -1.0984054770e+01 +2.7110253602e+01 6.2794839366e+01 3.9999999911e+01 0.0000e+00 0.0000e+00
      -11  1    5    5    0    0 +6.6776816908e+00 -1.5513449246e+01 +2.5445137328e+01 3.0540359426e+01 0.0000000000e+00 0.0000e+00 1.0000e+00
       13  1    4    4    0    0 -9.0090527711e+00 -1.0317721549e+01 +8.2216910930e+00 1.5975437841e+01 0.0000000000e+00 0.0000e+00 1.0000e+00
      -11  1    4    4    0    0 -2.9560061149e+01 +2.1301776318e+01 +9.5316749742e+01 1.0204335192e+02 0.0000000000e+00 0.0000e+00 1.0000e+00
       13  1    5    5    0    0 +3.1891432229e+01 +4.5293944764e+00 +1.6651162744e+00 3.2254479940e+01 0.0000000000e+00 0.0000e+00 1.0000e+00
<mgrwt>
<rscale>  0 0.12499795E+03</rscale>
<asrwt>0</asrwt>
<pdfrwt beam="1">  1       21 0.38932788E-01 0.12499795E+03</pdfrwt>
<pdfrwt beam="2">  1       21 0.62706173E-02 0.12499795E+03</pdfrwt>
<totfact> 0.11626421E+06</totfact>
</mgrwt>
</event>
<event>
 9      1 +9.5563000e+06 1.24982900e+02 7.81860800e-03 1.23509600e-01
       21 -1    0    0  502  501 +0.0000000000e+00 +0.0000000000e+00 +3.1224296495e+02 3.1224296495e+02 0.0000000000e+00 0.0000e+00 -1.0000e+00
       21 -1    0    0  501  502 -0.0000000000e+00 -0.0000000000e+00 -1.2506858219e+01 1.2506858219e+01 0.0000000000e+00 0.0000e+00 -1.0000e+00
       25  2    1    2    0    0 +0.0000000000e+00 -7.1054273576e-15 +2.9973610673e+02 3.2474982317e+02 1.2498285470e+02 0.0000e+00 0.0000e+00
  9000006  2    3    3    0    0 +1.7650209435e+01 +4.1456023257e+01 +1.0677554933e+02 1.2260158927e+02 4.0000000005e+01 0.0000e+00 0.0000e+00
  9000006  2    3    3    0    0 -1.7650209435e+01 -4.1456023257e+01 +1.9296055740e+02 2.0214823389e+02 3.9999999964e+01 0.0000e+00 0.0000e+00
      -11  1    5    5    0    0 -2.3320127372e+00 -3.8479559900e+00 -4.4885382912e-01 4.5217826648e+00 0.0000000000e+00 0.0000e+00 1.0000e+00
       13  1    4    4    0    0 +1.8576339161e+00 -5.4269372794e+00 +3.4764231760e+01 3.5234276804e+01 0.0000000000e+00 0.0000e+00 1.0000e+00
      -11  1    4    4    0    0 +1.5792575518e+01 +4.6882960536e+01 +7.2011317571e+01 8.7367312471e+01 0.0000000000e+00 0.0000e+00 1.0000e+00
       13  1    5    5    0    0 -1.5318196697e+01 -3.7608067267e+01 +1.9340941123e+02 1.9762645123e+02 0.0000000000e+00 0.0000e+00 1.0000e+00
<mgrwt>
<rscale>  0 0.12498285E+03</rscale>
<asrwt>0</asrwt>
<pdfrwt beam="1">  1       21 0.78060716E-01 0.12498285E+03</pdfrwt>
<pdfrwt beam="2">  1       21 0.31267156E-02 0.12498285E+03</pdfrwt>
<totfact> 0.86334025E+05</totfact>
</mgrwt>
</event>
<event>
 9      1 +9.5563000e+06 1.24999900e+02 7.81860800e-03 1.23506900e-01
       21 -1    0    0  502  501 +0.0000000000e+00 +0.0000000000e+00 +1.5115422760e+02 1.5115422760e+02 0.0000000000e+00 0.0000e+00 -1.0000e+00
       21 -1    0    0  501  502 -0.0000000000e+00 -0.0000000000e+00 -2.5842784526e+01 2.5842784526e+01 0.0000000000e+00 0.0000e+00 -1.0000e+00
       25  2    1    2    0    0 +0.0000000000e+00 -1.7763568394e-15 +1.2531144307e+02 1.7699701213e+02 1.2499993814e+02 0.0000e+00 0.0000e+00
  9000006  2    3    3    0    0 +1.2586624590e+01 -1.5890301693e+01 +1.0107633323e+00 4.4854725964e+01 3.9999999905e+01 0.0000e+00 0.0000e+00
  9000006  2    3    3    0    0 -1.2586624590e+01 +1.5890301693e+01 +1.2430067974e+02 1.3214228616e+02 4.0000000013e+01 0.0000e+00 0.0000e+00
      -11  1    4    4    0    0 -1.8486416904e+00 -2.1406940398e+01 -1.2037983476e+01 2.4628999563e+01 0.0000000000e+00 0.0000e+00 1.0000e+00
       13  1    4    4    0    0 +1.4435266281e+01 +5.5166387051e+00 +1.3048746808e+01 2.0225726402e+01 0.0000000000e+00 0.0000e+00 1.0000e+00
      -11  1    5    5    0    0 +4.8355295979e+00 -4.5019930268e+00 +8.0578845946e+01 8.0849246760e+01 0.0000000000e+00 0.0000e+00 1.0000e+00
       13  1    5    5    0    0 -1.7422154188e+01 +2.0392294719e+01 +4.3721833796e+01 5.1293039401e+01 0.0000000000e+00 0.0000e+00 1.0000e+00
<mgrwt>
<rscale>  0 0.12499994E+03</rscale>
<asrwt>0</asrwt>
<pdfrwt beam="1">  1       21 0.37788554E-01 0.12499994E+03</pdfrwt>
<pdfrwt beam="2">  1       21 0.64606966E-02 0.12499994E+03</pdfrwt>
<totfact> 0.11725111E+06</totfact>
</mgrwt>
</event>
<event>
 9      1 +9.5563000e+06 1.25003300e+02 7.81860800e-03 1.23506400e-01
       21 -1    0    0  502  501 +0.0000000000e+00 +0.0000000000e+00 +5.1691185736e+02 5.1691185736e+02 0.0000000000e+00 0.0000e+00 1.0000e+00
       21 -1    0    0  501  502 -0.0000000000e+00 -0.0000000000e+00 -7.5572934389e+00 7.5572934389e+00 0.0000000000e+00 0.0000e+00 1.0000e+00
       25  2    1    2    0    0 +0.0000000000e+00 +1.7763568394e-15 +5.0935456392e+02 5.2446915080e+02 1.2500327337e+02 0.0000e+00 0.0000e+00
  9000006  2    3    3    0    0 -1.4690411163e+01 +7.0030281847e+00 +4.4425370207e+02 4.4634762505e+02 3.9999999974e+01 0.0000e+00 0.0000e+00
  9000006  2    3    3    0    0 +1.4690411163e+01 -7.0030281847e+00 +6.5100861849e+01 7.8121525751e+01 3.9999999852e+01 0.0000e+00 0.0000e+00
      -11  1    5    5    0    0 +2.1711396142e+00 -5.8931052619e+00 +6.5250714293e+01 6.5552255892e+01 0.0000000000e+00 0.0000e+00 1.0000e+00
       13  1    4    4    0    0 -7.9572191625e+00 +2.0334479124e+01 +1.3683375959e+02 1.3856509712e+02 0.0000000000e+00 0.0000e+00 1.0000e+00
      -11  1    4    4    0    0 -6.7331920009e+00 -1.3331450939e+01 +3.0741994248e+02 3.0778252792e+02 0.0000000000e+00 0.0000e+00 1.0000e+00
       13  1    5    5    0    0 +1.2519271549e+01 -1.1099229228e+00 -1.4985244344e-01 1.2569269858e+01 0.0000000000e+00 0.0000e+00 1.0000e+00
<mgrwt>
<rscale>  0 0.12500327E+03</rscale>
<asrwt>0</asrwt>
<pdfrwt beam="1">  1       21 0.12922784E+00 0.12500327E+03</pdfrwt>
<pdfrwt beam="2">  1       21 0.18893251E-02 0.12500327E+03</pdfrwt>
<totfact> 0.60069795E+05</totfact>
</mgrwt>
</event>
<event>
 9      1 +9.5563000e+06 1.24994200e+02 7.81860800e-03 1.23507800e-01
       21 -1    0    0  502  501 +0.0000000000e+00 +0.0000000000e+00 +1.8546461466e+02 1.8546461466e+02 0.0000000000e+00 0.0000e+00 -1.0000e+00
       21 -1    0    0  501  502 -0.0000000000e+00 -0.0000000000e+00 -2.1060021160e+01 2.1060021160e+01 0.0000000000e+00 0.0000e+00 -1.0000e+00
       25  2    1    2    0    0 +0.0000000000e+00 +0.0000000000e+00 +1.6440459350e+02 2.0652463582e+02 1.2499421921e+02 0.0000e+00 0.0000e+00
  9000006  2    3    3    0    0 +3.5589807214e+01 +2.8273062300e+01 +5.6611344184e+01 8.2890558705e+01 4.0000000034e+01 0.0000e+00 0.0000e+00
  9000006  2    3    3    0    0 -3.5589807214e+01 -2.8273062300e+01 +1.0779324932e+02 1.2363407712e+02 3.9999999959e+01 0.0000e+00 0.0000e+00
      -11  1    5    5    0    0 -8.2905905762e+00 -7.0663539913e+00 +7.5651269432e+01 7.6431549883e+01 0.0000000000e+00 0.0000e+00 1.0000e+00
       13  1    4    4    0    0 +1.0309553881e+01 -1.0089923462e+01 +1.6329886968e+01 2.1788957412e+01 0.0000000000e+00 0.0000e+00 1.0000e+00
      -11  1    4    4    0    0 +2.5280253333e+01 +3.8362985762e+01 +4.0281457216e+01 6.1101601293e+01 0.0000000000e+00 0.0000e+00 1.0000e+00
       13  1    5    5    0    0 -2.7299216638e+01 -2.1206708308e+01 +3.2141979887e+01 4.7202527235e+01 0.0000000000e+00 0.0000e+00 1.0000e+00
<mgrwt>
<rscale>  0 0.12499422E+03</rscale>
<asrwt>0</asrwt>
<pdfrwt beam="1">  1       21 0.46366149E-01 0.12499422E+03</pdfrwt>
<pdfrwt beam="2">  1       21 0.52650059E-02 0.12499422E+03</pdfrwt>
<totfact> 0.10987900E+06</totfact>
</mgrwt>
</event>
<event>
 9      1 +9.5563000e+06 1.24971300e+02 7.81860800e-03 1.23511400e-01
       21 -1    0    0  502  501 +0.0000000000e+00 +0.0000000000e+00 +8.2016116740e+01 8.2016116740e+01 0.0000000000e+00 0.0000e+00 -1.0000e+00
       21 -1    0    0  501  502 -0.0000000000e+00 -0.0000000000e+00 -4.7605962172e+01 4.7605962172e+01 0.0000000000e+00 0.0000e+00 -1.0000e+00
       25  2    1    2    0    0 +0.0000000000e+00 +0.0000000000e+00 +3.4410154567e+01 1.2962207891e+02 1.2497129512e+02 0.0000e+00 0.0000e+00
  9000006  2    3    3    0    0 -4.2743969491e+01 -2.1712649274e+01 +1.4670772135e+01 6.4138269538e+01 3.9999999974e+01 0.0000e+00 0.0000e+00
  9000006  2    3    3    0    0 +4.2743969491e+01 +2.1712649274e+01 +1.9739382433e+01 6.5483809374e+01 4.0000000062e+01 0.0000e+00 0.0000e+00
      -11  1    4    4    0    0 -3.5923004027e+01 -3.1902083547e+01 +1.8205085710e+01 5.1377332537e+01 0.0000000000e+00 0.0000e+00 1.0000e+00
       13  1    4    4    0    0 -6.8209654645e+00 +1.0189434273e+01 -3.5343135756e+00 1.2760937000e+01 0.0000000000e+00 0.0000e+00 1.0000e+00
      -11  1    5    5    0    0 +2.0871123397e+00 -8.4630426634e+00 -3.9674499513e+00 9.5770448551e+00 0.0000000000e+00 0.0000e+00 1.0000e+00
       13  1    5    5    0    0 +4.0656857151e+01 +3.0175691937e+01 +2.3706832384e+01 5.5906764519e+01 0.0000000000e+00 0.0000e+00 1.0000e+00
<mgrwt>
<rscale>  0 0.12497130E+03</rscale>
<asrwt>0</asrwt>
<pdfrwt beam="1">  1       21 0.20504029E-01 0.12497130E+03</pdfrwt>
<pdfrwt beam="2">  1       21 0.11901491E-01 0.12497130E+03</pdfrwt>
<totfact> 0.13091419E+06</totfact>
</mgrwt>
</event>
<event>
 9      1 +9.5563000e+06 1.24995500e+02 7.81860800e-03 1.23507600e-01
       21 -1    0    0  502  501 +0.0000000000e+00 +0.0000000000e+00 +9.7664358905e+00 9.7664358905e+00 0.0000000000e+00 0.0000e+00 1.0000e+00
       21 -1    0    0  501  502 -0.0000000000e+00 -0.0000000000e+00 -3.9993781342e+02 3.9993781342e+02 0.0000000000e+00 0.0000e+00 1.0000e+00
       25  2    1    2    0    0 +0.0000000000e+00 +0.0000000000e+00 -3.9017137752e+02 4.0970424931e+02 1.2499547216e+02 0.0000e+00 0.0000e+00
  9000006  2    3    3    0    0 -3.8432022767e+01 -2.4560230459e+01 -1.4583842507e+02 1.5795275091e+02 3.9999999985e+01 0.0000e+00 0.0000e+00
  9000006  2    3    3    0    0 +3.8432022767e+01 +2.4560230459e+01 -2.4433295245e+02 2.5175149840e+02 3.9999999942e+01 0.0000e+00 0.0000e+00
      -11  1    4    4    0    0 -1.6766004318e+01 -9.9114810698e+00 -1.5155376236e+01 2.4678366774e+01 0.0000000000e+00 0.0000e+00 1.0000e+00
       13  1    4    4    0    0 -2.1666018449e+01 -1.4648749389e+01 -1.3068304883e+02 1.3327438414e+02 0.0000000000e+00 0.0000e+00 1.0000e+00
      -11  1    5    5    0    0 +3.8319647656e+01 +2.9268468456e+01 -2.4147588328e+02 2.4624305238e+02 0.0000000000e+00 0.0000e+00 1.0000e+00
       13  1    5    5    0    0 +1.1237511093e-01 -4.7082379973e+00 -2.8570691786e+00 5.5084460146e+00 0.0000000000e+00 0.0000e+00 1.0000e+00
<mgrwt>
<rscale>  0 0.12499547E+03</rscale>
<asrwt>0</asrwt>
<pdfrwt beam="1">  1       21 0.24416091E-02 0.12499547E+03</pdfrwt>
<pdfrwt beam="2">  1       21 0.99984448E-01 0.12499547E+03</pdfrwt>
<totfact> 0.73596346E+05</totfact>
</mgrwt>
</event>
<event>
 9      1 +9.5563000e+06 1.25033900e+02 7.81860800e-03 1.23501600e-01
       21 -1    0    0  502  501 +0.0000000000e+00 +0.0000000000e+00 +1.1338919358e+02 1.1338919358e+02 0.0000000000e+00 0.0000e+00 1.0000e+00
       21 -1    0    0  501  502 -0.0000000000e+00 -0.0000000000e+00 -3.4468609630e+01 3.4468609630e+01 0.0000000000e+00 0.0000e+00 1.0000e+00
       25  2    1    2    0    0 +0.0000000000e+00 +0.0000000000e+00 +7.8920583950e+01 1.4785780321e+02 1.2503388101e+02 0.0000e+00 0.0000e+00
  9000006  2    3    3    0    0 -2.4199036352e+01 -4.1426023698e+01 +4.2511861407e+01 7.5557707491e+01 4.0000000014e+01 0.0000e+00 0.0000e+00
  9000006  2    3    3    0    0 +2.4199036352e+01 +4.1426023698e+01 +3.6408722543e+01 7.2300095720e+01 3.9999999551e+01 0.0000e+00 0.0000e+00
      -11  1    4    4    0    0 -2.0285820293e+01 -1.1524045466e+01 -1.2837247767e-01 2.3330979584e+01 0.0000000000e+00 0.0000e+00 1.0000e+00
       13  1    4    4    0    0 -3.9132160594e+00 -2.9901978232e+01 +4.2640233884e+01 5.2226727907e+01 0.0000000000e+00 0.0000e+00 1.0000e+00
      -11  1    5    5    0    0 -4.7867367795e+00 +1.7478074043e+01 -2.3823596303e+00 1.8277624535e+01 0.0000000000e+00 0.0000e+00 1.0000e+00
       13  1    5    5    0    0 +2.8985773132e+01 +2.3947949656e+01 +3.8791082173e+01 5.4022471185e+01 0.0000000000e+00 0.0000e+00 1.0000e+00
<mgrwt>
<rscale>  0 0.12503388E+03</rscale>
<asrwt>0</asrwt>
<pdfrwt beam="1">  1       21 0.28347298E-01 0.12503388E+03</pdfrwt>
<pdfrwt beam="2">  1       21 0.86171527E-02 0.12503388E+03</pdfrwt>
<totfact> 0.12520636E+06</totfact>
</mgrwt>
</event>
<event>
 9      1 +9.5563000e+06 1.25000300e+02 7.81860800e-03 1.23506900e-01
       21 -1    0    0  502  501 +0.0000000000e+00 +0.0000000000e+00 +1.8699495365e+02 1.8699495365e+02 0.0000000000e+00 0.0000e+00 1.0000e+00
       21 -1    0    0  501  502 -0.0000000000e+00 -0.0000000000e+00 -2.0889699195e+01 2.0889699195e+01 0.0000000000e+00 0.0000e+00 1.0000e+00
       25  2    1    2    0    0 +0.0000000000e+00 +2.6645352591e-15 +1.6610525445e+02 2.0788465284e+02 1.2500029332e+02 0.0000e+00 0.0000e+00
  9000006  2    3    3    0    0 -3.2865825827e+01 -5.9221076575e-01 +2.4827123716e+01 5.7418631951e+01 4.0000000027e+01 0.0000e+00 0.0000e+00
  9000006  2    3    3    0    0 +3.2865825827e+01 +5.9221076575e-01 +1.4127813074e+02 1.5046602089e+02 3.9999999973e+01 0.0000e+00 0.0000e+00
      -11  1    4    4    0    0 -2.6872730852e+01 +3.4912650751e+00 +3.5410095280e+01 4.4589319832e+01 0.0000000000e+00 0.0000e+00 1.0000e+00
       13  1    4    4    0    0 -5.9930949749e+00 -4.0834758409e+00 -1.0582971564e+01 1.2829312119e+01 0.0000000000e+00 0.0000e+00 1.0000e+00
      -11  1    5    5    0    0 +2.2794896428e+01 -1.8739373351e+01 +7.1092799564e+01 7.6973745956e+01 0.0000000000e+00 0.0000e+00 1.0000e+00
       13  1    5    5    0    0 +1.0070929400e+01 +1.9331584116e+01 +7.0185331173e+01 7.3492274936e+01 0.0000000000e+00 0.0000e+00 1.0000e+00
<mgrwt>
<rscale>  0 0.12500029E+03</rscale>
<asrwt>0</asrwt>
<pdfrwt beam="1">  1       21 0.46748733E-01 0.12500029E+03</pdfrwt>
<pdfrwt beam="2">  1       21 0.52224254E-02 0.12500029E+03</pdfrwt>
<totfact> 0.10953862E+06</totfact>
</mgrwt>
</event>
<event>
 9      1 +9.5563000e+06 1.25002700e+02 7.81860800e-03 1.23506500e-01
       21 -1    0    0  502  501 +0.0000000000e+00 +0.0000000000e+00 +3.6534300079e+01 3.6534300079e+01 0.0000000000e+00 0.0000e+00 -1.0000e+00
       21 -1    0    0  501  502 -0.0000000000e+00 -0.0000000000e+00 -1.0692463234e+02 1.0692463234e+02 0.0000000000e+00 0.0000e+00 -1.0000e+00
       25  2    1    2    0    0 +0.0000000000e+00 +0.0000000000e+00 -7.0390332259e+01 1.4345893242e+02 1.2500266563e+02 0.0000e+00 0.0000e+00
  9000006  2    3    3    0    0 +1.1501618126e+01 -4.1877599978e+01 -5.8726017669e+01 8.3275240899e+01 3.9999999952e+01 0.0000e+00 0.0000e+00
  9000006  2    3    3    0    0 -1.1501618126e+01 +4.1877599978e+01 -1.1664314590e+01 6.0183691517e+01 3.9999998629e+01 0.0000e+00 0.0000e+00
      -11  1    5    5    0    0 -3.7573501984e+00 +1.4968214956e+01 +1.4997279758e+01 2.1519375912e+01 0.0000000000e+00 0.0000e+00 1.0000e+00
       13  1    4    4    0    0 +1.2487239325e+01 -3.5004496493e+01 -1.6813394413e+01 4.0791373505e+01 0.0000000000e+00 0.0000e+00 1.0000e+00
      -11  1    4    4    0    0 -9.8562119852e-01 -6.8731034851e+00 -4.1912623255e+01 4.2483867395e+01 0.0000000000e+00 0.0000e+00 1.0000e+00
       13  1    5    5    0    0 -7.7442679278e+00 +2.6909385022e+01 -2.6661594349e+01 3.8664315605e+01 0.0000000000e+00 0.0000e+00 1.0000e+00
<mgrwt>
<rscale>  0 0.12500267E+03</rscale>
<asrwt>0</asrwt>
<pdfrwt beam="1">  1       21 0.91335751E-02 0.12500267E+03</pdfrwt>
<pdfrwt beam="2">  1       21 0.26731158E-01 0.12500267E+03</pdfrwt>
<totfact> 0.12660415E+06</totfact>
</mgrwt>
</event>
<event>
 9      1 +9.5563000e+06 1.25001700e+02 7.81860800e-03 1.23506700e-01
       21 -1    0    0  502  501 +0.0000000000e+00 +0.0000000000e+00 +4.4783377691e+01 4.4783377691e+01 0.0000000000e+00 0.0000e+00 1.0000e+00
       21 -1    0    0  501  502 -0.0000000000e+00 -0.0000000000e+00 -8.7227872578e+01 8.7227872578e+01 0.0000000000e+00 0.0000e+00 1.0000e+00
       25  2    1    2    0    0 -7.1054273576e-15 +0.0000000000e+00 -4.2444494888e+01 1.3201125027e+02 1.2500174019e+02 0.0000e+00 0.0000e+00
  9000006  2    3    3    0    0 -1.9671178302e+01 -9.2328885473e+00 -6.6450850245e+01 8.0547606864e+01 3.9999999833e+01 0.0000e+00 0.0000e+00
  9000006  2    3    3    0    0 +1.9671178302e+01 +9.2328885473e+00 +2.4006355357e+01 5.1463643404e+01 4.0000000103e+01 0.0000e+00 0.0000e+00
      -11  1    5    5    0    0 -9.5350744457e+00 -3.9723242443e+00 +1.4921987307e+01 1.8148352812e+01 0.0000000000e+00 0.0000e+00 1.0000e+00
       13  1    4    4    0    0 -3.2068928838e+01 -5.4845467472e+00 -4.8930822214e+01 5.8759865659e+01 0.0000000000e+00 0.0000e+00 1.0000e+00
      -11  1    4    4    0    0 +1.2397750536e+01 -3.7483418001e+00 -1.7520028031e+01 2.1787741205e+01 0.0000000000e+00 0.0000e+00 1.0000e+00
       13  1    5    5    0    0 +2.9206252747e+01 +1.3205212792e+01 +9.0843680499e+00 3.3315290593e+01 0.0000000000e+00 0.0000e+00 1.0000e+00
<mgrwt>
<rscale>  0 0.12500174E+03</rscale>
<asrwt>0</asrwt>
<pdfrwt beam="1">  1       21 0.11195845E-01 0.12500174E+03</pdfrwt>
<pdfrwt beam="2">  1       21 0.21806968E-01 0.12500174E+03</pdfrwt>
<totfact> 0.13006309E+06</totfact>
</mgrwt>
</event>
<event>
 9      1 +9.5563000e+06 1.25000700e+02 7.81860800e-03 1.23506800e-01
       21 -1    0    0  502  501 +0.0000000000e+00 +0.0000000000e+00 +2.1556617357e+02 2.1556617357e+02 0.0000000000e+00 0.0000e+00 -1.0000e+00
       21 -1    0    0  501  502 -0.0000000000e+00 -0.0000000000e+00 -1.8121088050e+01 1.8121088050e+01 0.0000000000e+00 0.0000e+00 -1.0000e+00
       25  2    1    2    0    0 +0.0000000000e+00 +0.0000000000e+00 +1.9744508552e+02 2.3368726162e+02 1.2500069779e+02 0.0000e+00 0.0000e+00
  9000006  2    3    3    0    0 +1.6359659114e+01 +5.9888879204e+00 +1.5058252139e+01 4.6154698516e+01 4.0000000160e+01 0.0000e+00 0.0000e+00
  9000006  2    3    3    0    0 -1.6359659114e+01 -5.9888879204e+00 +1.8238683338e+02 1.8753256311e+02 4.0000000106e+01 0.0000e+00 0.0000e+00
      -11  1    4    4    0    0 +1.8712984620e+01 -1.3641028411e+01 +3.9947730364e+00 2.3499184265e+01 0.0000000000e+00 0.0000e+00 1.0000e+00
       13  1    4    4    0    0 -2.3533255061e+00 +1.9629916332e+01 +1.1063479102e+01 2.2655514251e+01 0.0000000000e+00 0.0000e+00 1.0000e+00
      -11  1    5    5    0    0 -2.2453822316e+01 -4.4526635010e+00 +1.7887375201e+02 1.8033252482e+02 0.0000000000e+00 0.0000e+00 1.0000e+00
       13  1    5    5    0    0 +6.0941632016e+00 -1.5362244194e+00 +3.5130813702e+00 7.2000382852e+00 0.0000000000e+00 0.0000e+00 1.0000e+00
<mgrwt>
<rscale>  0 0.12500070E+03</rscale>
<asrwt>0</asrwt>
<pdfrwt beam="1">  1       21 0.53891535E-01 0.12500070E+03</pdfrwt>
<pdfrwt beam="2">  1       21 0.45302727E-02 0.12500070E+03</pdfrwt>
<totfact> 0.10367954E+06</totfact>
</mgrwt>
</event>
<event>
 9      1 +9.5563000e+06 1.25000700e+02 7.81860800e-03 1.23506800e-01
       21 -1    0    0  502  501 +0.0000000000e+00 +0.0000000000e+00 +3.4600023152e+01 3.4600023152e+01 0.0000000000e+00 0.0000e+00 -1.0000e+00
       21 -1    0    0  501  502 -0.0000000000e+00 -0.0000000000e+00 -1.1289858464e+02 1.1289858464e+02 0.0000000000e+00 0.0000e+00 -1.0000e+00
       25  2    1    2    0    0 +0.0000000000e+00 -7.1054273576e-15 -7.8298561492e+01 1.4749860780e+02 1.2500069828e+02 0.0000e+00 0.0000e+00
  9000006  2    3    3    0    0 -2.8272034886e+01 +3.3537147067e+01 -1.6079330839e+01 6.1502788975e+01 3.9999999769e+01 0.0000e+00 0.0000e+00
  9000006  2    3    3    0    0 +2.8272034886e+01 -3.3537147067e+01 -6.2219230653e+01 8.5995818821e+01 4.0000000022e+01 0.0000e+00 0.0000e+00
      -11  1    5    5    0    0 -3.1643628872e+00 +4.6262888814e+00 -2.0657015367e+01 2.1403925461e+01 0.0000000000e+00 0.0000e+00 1.0000e+00
       13  1    4    4    0    0 +2.9377247837e+00 +4.9450658738e-01 +9.0772480814e+00 9.5535959932e+00 0.0000000000e+00 0.0000e+00 1.0000e+00
      -11  1    4    4    0    0 -3.1209759669e+01 +3.3042640479e+01 -2.5156578921e+01 5.1949192982e+01 0.0000000000e+00 0.0000e+00 1.0000e+00
       13  1    5    5    0    0 +3.1436397773e+01 -3.8163435948e+01 -4.1562215286e+01 6.4591893360e+01 0.0000000000e+00 0.0000e+00 1.0000e+00
<mgrwt>
<rscale>  0 0.12500070E+03</rscale>
<asrwt>0</asrwt>
<pdfrwt beam="1">  1       21 0.86500059E-02 0.12500070E+03</pdfrwt>
<pdfrwt beam="2">  1       21 0.28224646E-01 0.12500070E+03</pdfrwt>
<totfact> 0.12542087E+06</totfact>
</mgrwt>
</event>
<event>
 9      1 +9.5563000e+06 1.24955400e+02 7.81860800e-03 1.23513900e-01
       21 -1    0    0  502  501 +0.0000000000e+00 +0.0000000000e+00 +7.5725999242e+01 7.5725999242e+01 0.0000000000e+00 0.0000e+00 1.0000e+00
       21 -1    0    0  501  502 -0.0000000000e+00 -0.0000000000e+00 -5.1547179705e+01 5.1547179705e+01 0.0000000000e+00 0.0000e+00 1.0000e+00
       25  2    1    2    0    0 -3.5527136788e-15 +0.0000000000e+00 +2.4178819538e+01 1.2727317895e+02 1.2495537910e+02 0.0000e+00 0.0000e+00
  9000006  2    3    3    0    0 +3.0137119578e+01 -2.8417218118e+01 +3.6781135310e+01 6.8327418894e+01 3.9999999949e+01 0.0000e+00 0.0000e+00
  9000006  2    3    3    0    0 -3.0137119578e+01 +2.8417218118e+01 -1.2602315772e+01 5.8945760054e+01 4.0000000043e+01 0.0000e+00 0.0000e+00
      -11  1    5    5    0    0 +2.6100347696e+00 +2.4365340599e+01 -3.8253280050e+00 2.4801516856e+01 0.0000000000e+00 0.0000e+00 1.0000e+00
       13  1    4    4    0    0 +2.3923520956e+01 -3.7473094540e+00 +7.5858036278e-01 2.4227105218e+01 0.0000000000e+00 0.0000e+00 1.0000e+00
      -11  1    4    4    0    0 +6.2135986217e+00 -2.4669908664e+01 +3.6022554947e+01 4.4100313675e+01 0.0000000000e+00 0.0000e+00 1.0000e+00
       13  1    5    5    0    0 -3.2747154348e+01 +4.0518775195e+00 -8.7769877671e+00 3.4144243198e+01 0.0000000000e+00 0.0000e+00 1.0000e+00
<mgrwt>
<rscale>  0 0.12495538E+03</rscale>
<asrwt>0</asrwt>
<pdfrwt beam="1">  1       21 0.18931500E-01 0.12495538E+03</pdfrwt>
<pdfrwt beam="2">  1       21 0.12886795E-01 0.12495538E+03</pdfrwt>
<totfact> 0.13171520E+06</totfact>
</mgrwt>
</event>
<event>
 9      1 +9.5563000e+06 1.24999000e+02 7.81860800e-03 1.23507100e-01
       21 -1    0    0  502  501 +0.0000000000e+00 +0.0000000000e+00 +2.4918424019e+01 2.4918424019e+01 0.0000000000e+00 0.0000e+00 -1.0000e+00
       21 -1    0    0  501  502 -0.0000000000e+00 -0.0000000000e+00 -1.5675905828e+02 1.5675905828e+02 0.0000000000e+00 0.0000e+00 -1.0000e+00
       25  2    1    2    0    0 +0.0000000000e+00 -3.5527136788e-15 -1.3184063426e+02 1.8167748230e+02 1.2499901893e+02 0.0000e+00 0.0000e+00
  9000006  2    3    3    0    0 +3.9186467828e+01 +1.6183925019e+01 -9.8701233895e+01 1.1462736262e+02 3.9999999993e+01 0.0000e+00 0.0000e+00
  9000006  2    3    3    0    0 -3.9186467828e+01 -1.6183925019e+01 -3.3139400364e+01 6.7050119676e+01 4.0000000028e+01 0.0000e+00 0.0000e+00
      -11  1    4    4    0    0 +5.7603922634e+00 -1.2516046268e+01 -3.0010484325e+01 3.3022154725e+01 0.0000000000e+00 0.0000e+00 1.0000e+00
       13  1    4    4    0    0 +3.3426075564e+01 +2.8699971288e+01 -6.8690749570e+01 8.1605207897e+01 0.0000000000e+00 0.0000e+00 1.0000e+00
      -11  1    5    5    0    0 -3.2011380311e+01 -2.4379891644e+01 -3.7794267991e+01 5.5204295838e+01 0.0000000000e+00 0.0000e+00 1.0000e+00
       13  1    5    5    0    0 -7.1750875164e+00 +8.1959666246e+00 +4.6548676267e+00 1.1845823838e+01 0.0000000000e+00 0.0000e+00 1.0000e+00
<mgrwt>
<rscale>  0 0.12499902E+03</rscale>
<asrwt>0</asrwt>
<pdfrwt beam="1">  1       21 0.62296060E-02 0.12499902E+03</pdfrwt>
<pdfrwt beam="2">  1       21 0.39189764E-01 0.12499902E+03</pdfrwt>
<totfact> 0.11603805E+06</totfact>
</mgrwt>
</event>
<event>
 9      1 +9.5563000e+06 1.24999100e+02 7.81860800e-03 1.23507100e-01
       21 -1    0    0  502  501 +0.0000000000e+00 +0.0000000000e+00 +1.0318585796e+01 1.0318585796e+01 0.0000000000e+00 0.0000e+00 1.0000e+00
       21 -1    0    0  501  502 -0.0000000000e+00 -0.0000000000e+00 -3.7855877904e+02 3.7855877904e+02 0.0000000000e+00 0.0000e+00 1.0000e+00
       25  2    1    2    0    0 -7.1054273576e-15 +0.0000000000e+00 -3.6824019324e+02 3.8887736483e+02 1.2499905984e+02 0.0000e+00 0.0000e+00
  9000006  2    3    3    0    0 -4.2657489060e+01 +1.3924839863e+01 -1.3090137699e+02 1.4404420483e+02 3.9999998874e+01 0.0000e+00 0.0000e+00
  9000006  2    3    3    0    0 +4.2657489060e+01 -1.3924839863e+01 -2.3733881625e+02 2.4483316000e+02 3.9999999969e+01 0.0000e+00 0.0000e+00
      -11  1    4    4    0    0 -3.6769336625e+01 +1.2948668330e+01 -1.3229184236e+02 1.3791585726e+02 0.0000000000e+00 0.0000e+00 1.0000e+00
       13  1    4    4    0    0 -5.8881524357e+00 +9.7617153258e-01 +1.3904653788e+00 6.1283475698e+00 0.0000000000e+00 0.0000e+00 1.0000e+00
      -11  1    5    5    0    0 +1.9271470433e+00 -1.8972204472e+01 -7.6013622930e+01 7.8369185967e+01 0.0000000000e+00 0.0000e+00 1.0000e+00
       13  1    5    5    0    0 +4.0730342017e+01 +5.0473646095e+00 -1.6132519333e+02 1.6646397404e+02 0.0000000000e+00 0.0000e+00 1.0000e+00
<mgrwt>
<rscale>  0 0.12499906E+03</rscale>
<asrwt>0</asrwt>
<pdfrwt beam="1">  1       21 0.25796466E-02 0.12499906E+03</pdfrwt>
<pdfrwt beam="2">  1       21 0.94639689E-01 0.12499906E+03</pdfrwt>
<totfact> 0.76453694E+05</totfact>
</mgrwt>
</event>
<event>
 9      1 +9.5563000e+06 1.24995600e+02 7.81860800e-03 1.23507600e-01
       21 -1    0    0  502  501 +0.0000000000e+00 +0.0000000000e+00 +7.7716649210e+01 7.7716649210e+01 0.0000000000e+00 0.0000e+00 1.0000e+00
       21 -1    0    0  501  502 -0.0000000000e+00 -0.0000000000e+00 -5.0259189019e+01 5.0259189019e+01 0.0000000000e+00 0.0000e+00 1.0000e+00
       25  2    1    2    0    0 -3.5527136788e-15 +0.0000000000e+00 +2.7457460191e+01 1.2797583823e+02 1.2499561212e+02 0.0000e+00 0.0000e+00
  9000006  2    3    3    0    0 +2.1735038148e+01 -3.2477030338e+01 +4.2301211906e+01 7.0118199559e+01 3.9999999972e+01 0.0000e+00 0.0000e+00
  9000006  2    3    3    0    0 -2.1735038148e+01 +3.2477030338e+01 -1.4843751715e+01 5.7857638671e+01 4.0000000058e+01 0.0000e+00 0.0000e+00
      -11  1    4    4    0    0 +1.8443582051e+01 -7.1807453785e+00 -1.0483517918e+00 1.9819885583e+01 0.0000000000e+00 0.0000e+00 1.0000e+00
       13  1    4    4    0    0 +3.2914560975e+00 -2.5296284960e+01 +4.3349563698e+01 5.0298313976e+01 0.0000000000e+00 0.0000e+00 1.0000e+00
      -11  1    5    5    0    0 +1.7103966630e+00 +1.1838651259e+01 -2.2692014602e+01 2.5651640241e+01 0.0000000000e+00 0.0000e+00 1.0000e+00
       13  1    5    5    0    0 -2.3445434811e+01 +2.0638379080e+01 +7.8482628862e+00 3.2205998430e+01 0.0000000000e+00 0.0000e+00 1.0000e+00
<mgrwt>
<rscale>  0 0.12499561E+03</rscale>
<asrwt>0</asrwt>
<pdfrwt beam="1">  1       21 0.19429162E-01 0.12499561E+03</pdfrwt>
<pdfrwt beam="2">  1       21 0.12564797E-01 0.12499561E+03</pdfrwt>
<totfact> 0.13135136E+06</totfact>
</mgrwt>
</event>
<event>
 9      1 +9.5563000e+06 1.24997300e+02 7.81860800e-03 1.23507400e-01
       21 -1    0    0  502  501 +0.0000000000e+00 +0.0000000000e+00 +6.8419353946e+02 6.8419353946e+02 0.0000000000e+00 0.0000e+00 1.0000e+00
       21 -1    0    0  501  502 -0.0000000000e+00 -0.0000000000e+00 -5.7090256625e+00 5.7090256625e+00 0.0000000000e+00 0.0000e+00 1.0000e+00
       25  2    1    2    0    0 +0.0000000000e+00 +8.8817841970e-16 +6.7848451379e+02 6.8990256512e+02 1.2499725557e+02 0.0000e+00 0.0000e+00
  9000006  2    3    3    0    0 +4.6569661472e+01 +7.7417213899e+00 +2.9068118715e+02 2.9719391004e+02 3.9999999756e+01 0.0000e+00 0.0000e+00
  9000006  2    3    3    0    0 -4.6569661472e+01 -7.7417213899e+00 +3.8780332664e+02 3.9270865508e+02 4.0000000004e+01 0.0000e+00 0.0000e+00
      -11  1    4    4    0    0 +1.9881180385e+01 +3.7832639979e+00 +3.7793267290e+01 4.2870799764e+01 0.0000000000e+00 0.0000e+00 1.0000e+00
       13  1    4    4    0    0 +2.6688481087e+01 +3.9584573921e+00 +2.5288791986e+02 2.5432311027e+02 0.0000000000e+00 0.0000e+00 1.0000e+00
      -11  1    5    5    0    0 -1.2702114883e+01 +8.8193334071e+00 +4.0277596334e+01 4.3144050930e+01 0.0000000000e+00 0.0000e+00 1.0000e+00
       13  1    5    5    0    0 -3.3867546589e+01 -1.6561054797e+01 +3.4752573031e+02 3.4956460415e+02 0.0000000000e+00 0.0000e+00 1.0000e+00
<mgrwt>
<rscale>  0 0.12499726E+03</rscale>
<asrwt>0</asrwt>
<pdfrwt beam="1">  1       21 0.17104811E+00 0.12499726E+03</pdfrwt>
<pdfrwt beam="2">  1       21 0.14272587E-02 0.12499726E+03</pdfrwt>
<totfact> 0.45587293E+05</totfact>
</mgrwt>
</event>
<event>
 9      1 +9.5563000e+06 1.24997500e+02 7.81860800e-03 1.23507300e-01
       21 -1    0    0  502  501 +0.0000000000e+00 +0.0000000000e+00 +1.3638542018e+02 1.3638542018e+02 0.0000000000e+00 0.0000e+00 1.0000e+00
       21 -1    0    0  501  502 -0.0000000000e+00 -0.0000000000e+00 -2.8640098725e+01 2.8640098725e+01 0.0000000000e+00 0.0000e+00 1.0000e+00
       25  2    1    2    0    0 -7.1054273576e-15 +3.5527136788e-15 +1.0774532145e+02 1.6502551890e+02 1.2499747035e+02 0.0000e+00 0.0000e+00
  9000006  2    3    3    0    0 +2.6031646419e+01 -1.2479610969e+01 +1.0453762063e+02 1.1559196089e+02 3.9999999866e+01 0.0000e+00 0.0000e+00
  9000006  2    3    3    0    0 -2.6031646419e+01 +1.2479610969e+01 +3.2077008212e+00 4.9433558016e+01 4.0000000104e+01 0.0000e+00 0.0000e+00
      -11  1    5    5    0    0 +8.5119518235e+00 -4.7120612353e+00 -3.3608412166e+00 1.0293303581e+01 0.0000000000e+00 0.0000e+00 1.0000e+00
       13  1    4    4    0    0 +8.5525316305e+00 -2.3492377048e+01 +7.8316181699e+01 8.2209864934e+01 0.0000000000e+00 0.0000e+00 1.0000e+00
      -11  1    4    4    0    0 +1.7479114789e+01 +1.1012766079e+01 +2.6221438930e+01 3.3382095951e+01 0.0000000000e+00 0.0000e+00 1.0000e+00
       13  1    5    5    0    0 -3.4543598243e+01 +1.7191672204e+01 +6.5685420378e+00 3.9140254435e+01 0.0000000000e+00 0.0000e+00 1.0000e+00
<mgrwt>
<rscale>  0 0.12499747E+03</rscale>
<asrwt>0</asrwt>
<pdfrwt beam="1">  1       21 0.34096353E-01 0.12499747E+03</pdfrwt>
<pdfrwt beam="2">  1       21 0.71600251E-02 0.12499747E+03</pdfrwt>
<totfact> 0.12046442E+06</totfact>
</mgrwt>
</event>
<event>
 9      1 +9.5563000e+06 1.24974600e+02 7.81860800e-03 1.23510900e-01
       21 -1    0    0  502  501 +0.0000000000e+00 +0.0000000000e+00 +5.9364303008e+00 5.9364303008e+00 0.0000000000e+00 0.0000e+00 1.0000e+00
       21 -1    0    0  501  502 -0.0000000000e+00 -0.0000000000e+00 -6.5774613865e+02 6.5774613865e+02 0.0000000000e+00 0.0000e+00 1.0000e+00
       25  2    1    2    0    0 -3.5527136788e-15 +0.0000000000e+00 -6.5180970834e+02 6.6368256895e+02 1.2497462315e+02 0.0000e+00 0.0000e+00
  9000006  2    3    3    0    0 -2.8257533361e+01 -3.5018523602e+01 -4.1474794616e+02 4.1909502986e+02 4.0000000320e+01 0.0000e+00 0.0000e+00
  9000006  2    3    3    0    0 +2.8257533361e+01 +3.5018523602e+01 -2.3706176219e+02 2.4458753908e+02 3.9999999969e+01 0.0000e+00 0.0000e+00
      -11  1    5    5    0    0 +1.1575878861e+00 +1.3026628481e+01 -1.5314780258e+02 1.5370518044e+02 0.0000000000e+00 0.0000e+00 1.0000e+00
       13  1    4    4    0    0 -3.0711552112e+01 -1.9991171931e+01 -3.7035307582e+02 3.7216158742e+02 0.0000000000e+00 0.0000e+00 1.0000e+00
      -11  1    4    4    0    0 +2.4540187505e+00 -1.5027351671e+01 -4.4394870342e+01 4.6933442436e+01 0.0000000000e+00 0.0000e+00 1.0000e+00
       13  1    5    5    0    0 +2.7099945475e+01 +2.1991895122e+01 -8.3913959608e+01 9.0882358645e+01 0.0000000000e+00 0.0000e+00 1.0000e+00
<mgrwt>
<rscale>  0 0.12497462E+03</rscale>
<asrwt>0</asrwt>
<pdfrwt beam="1">  1       21 0.14841078E-02 0.12497462E+03</pdfrwt>
<pdfrwt beam="2">  1       21 0.16443651E+00 0.12497462E+03</pdfrwt>
<totfact> 0.47620151E+05</totfact>
</mgrwt>
</event>
<event>
 9      1 +9.5563000e+06 1.25000100e+02 7.81860800e-03 1.23506900e-01
       21 -1    0    0  502  501 +0.0000000000e+00 +0.0000000000e+00 +1.6380975075e+02 1.6380975075e+02 0.0000000000e+00 0.0000e+00 -1.0000e+00
       21 -1    0    0  501  502 -0.0000000000e+00 -0.0000000000e+00 -2.3846299182e+01 2.3846299182e+01 0.0000000000e+00 0.0000e+00 -1.0000e+00
       25  2    1    2    0    0 +0.0000000000e+00 -7.1054273576e-15 +1.3996345157e+02 1.8765604993e+02 1.2500010121e+02 0.0000e+00 0.0000e+00
  9000006  2    3    3    0    0 +7.4030242398e+00 +2.9647684819e+01 +1.4365302076e+01 5.2346459998e+01 3.9999999845e+01 0.0000e+00 0.0000e+00
  9000006  2    3    3    0    0 -7.4030242398e+00 -2.9647684819e+01 +1.2559814949e+02 1.3530958994e+02 3.9999999866e+01 0.0000e+00 0.0000e+00
      -11  1    4    4    0    0 +5.8288416454e+00 +1.5762666905e+01 -1.3247322097e+01 2.1399266474e+01 0.0000000000e+00 0.0000e+00 1.0000e+00
       13  1    4    4    0    0 +1.5741825943e+00 +1.3885017914e+01 +2.7612624173e+01 3.0947193524e+01 0.0000000000e+00 0.0000e+00 1.0000e+00
      -11  1    5    5    0    0 -1.9985851047e+01 -3.6746451581e+00 +3.8186226748e+01 4.3256504393e+01 0.0000000000e+00 0.0000e+00 1.0000e+00
       13  1    5    5    0    0 +1.2582826807e+01 -2.5973039661e+01 +8.7411922747e+01 9.2053085543e+01 0.0000000000e+00 0.0000e+00 1.0000e+00
<mgrwt>
<rscale>  0 0.12500010E+03</rscale>
<asrwt>0</asrwt>
<pdfrwt beam="1">  1       21 0.40952434E-01 0.12500010E+03</pdfrwt>
<pdfrwt beam="2">  1       21 0.59615753E-02 0.12500010E+03</pdfrwt>
<totfact> 0.11450200E+06</totfact>
</mgrwt>
</event>
<event>
 9      1 +9.5563000e+06 1.24991800e+02 7.81860800e-03 1.23508200e-01
       21 -1    0    0  502  501 +0.0000000000e+00 +0.0000000000e+00 +4.1479665526e+01 4.1479665526e+01 0.0000000000e+00 0.0000e+00 1.0000e+00
       21 -1    0    0  501  502 -0.0000000000e+00 -0.0000000000e+00 -9.4160275018e+01 9.4160275018e+01 0.0000000000e+00 0.0000e+00 1.0000e+00
       25  2    1    2    0    0 +0.0000000000e+00 +0.0000000000e+00 -5.2680609492e+01 1.3563994054e+02 1.2499178715e+02 0.0000e+00 0.0000e+00
  9000006  2    3    3    0    0 -2.5216955017e+00 -3.4288847278e+01 -6.2716909884e+01 8.1948122547e+01 4.0000000097e+01 0.0000e+00 0.0000e+00
  9000006  2    3    3    0    0 +2.5216955017e+00 +3.4288847278e+01 +1.0036300392e+01 5.3691817996e+01 3.9999999979e+01 0.0000e+00 0.0000e+00
      -11  1    5    5    0    0 -7.9335454636e+00 -6.1324668264e+00 -2.0316938109e+00 1.0231132525e+01 0.0000000000e+00 0.0000e+00 1.0000e+00
       13  1    4    4    0    0 -3.7339815210e+00 -3.7842856948e+01 -2.8488648853e+01 4.7514498350e+01 0.0000000000e+00 0.0000e+00 1.0000e+00
      -11  1    4    4    0    0 +1.2122860192e+00 +3.5540096702e+00 -3.4228261031e+01 3.4433624197e+01 0.0000000000e+00 0.0000e+00 1.0000e+00
       13  1    5    5    0    0 +1.0455240965e+01 +4.0421314104e+01 +1.2067994203e+01 4.3460685471e+01 0.0000000000e+00 0.0000e+00 1.0000e+00
<mgrwt>
<rscale>  0 0.12499179E+03</rscale>
<asrwt>0</asrwt>
<pdfrwt beam="1">  1       21 0.10369916E-01 0.12499179E+03</pdfrwt>
<pdfrwt beam="2">  1       21 0.23540069E-01 0.12499179E+03</pdfrwt>
<totfact> 0.12898191E+06</totfact>
</mgrwt>
</event>
<event>
 9      1 +9.5563000e+06 1.24999900e+02 7.81860800e-03 1.23506900e-01
       21 -1    0    0  502  501 +0.0000000000e+00 +0.0000000000e+00 +1.2062712299e+01 1.2062712299e+01 0.0000000000e+00 0.0000e+00 1.0000e+00
       21 -1    0    0  501  502 -0.0000000000e+00 -0.0000000000e+00 -3.2382806042e+02 3.2382806042e+02 0.0000000000e+00 0.0000e+00 1.0000e+00
       25  2    1    2    0    0 +0.0000000000e+00 +0.0000000000e+00 -3.1176534812e+02 3.3589077272e+02 1.2499991563e+02 0.0000e+00 0.0000e+00
  9000006  2    3    3    0    0 -1.1077005515e+01 +4.3674146571e+01 -2.0053378330e+02 2.0938942039e+02 3.9999999920e+01 0.0000e+00 0.0000e+00
  9000006  2    3    3    0    0 +1.1077005515e+01 -4.3674146571e+01 -1.1123156482e+02 1.2650135233e+02 4.0000000003e+01 0.0000e+00 0.0000e+00
      -11  1    4    4    0    0 -1.6350170733e-01 +4.7722144491e+01 -1.7377149131e+02 1.8020533011e+02 0.0000000000e+00 0.0000e+00 1.0000e+00
       13  1    4    4    0    0 -1.0913503808e+01 -4.0479979205e+00 -2.6762291996e+01 2.9184090279e+01 0.0000000000e+00 0.0000e+00 1.0000e+00
      -11  1    5    5    0    0 -4.3338293468e+00 -1.4758487701e+00 +1.7613381821e+00 4.9053561126e+00 0.0000000000e+00 0.0000e+00 1.0000e+00
       13  1    5    5    0    0 +1.5410834862e+01 -4.2198297801e+01 -1.1299290300e+02 1.2159599622e+02 0.0000000000e+00 0.0000e+00 1.0000e+00
<mgrwt>
<rscale>  0 0.12499992E+03</rscale>
<asrwt>0</asrwt>
<pdfrwt beam="1">  1       21 0.30156782E-02 0.12499992E+03</pdfrwt>
<pdfrwt beam="2">  1       21 0.80957012E-01 0.12499992E+03</pdfrwt>
<totfact> 0.84463996E+05</totfact>
</mgrwt>
</event>
<event>
 9      1 +9.5563000e+06 1.25000600e+02 7.81860800e-03 1.23506800e-01
       21 -1    0    0  502  501 +0.0000000000e+00 +0.0000000000e+00 +1.3768017908e+02 1.3768017908e+02 0.0000000000e+00 0.0000e+00 -1.0000e+00
       21 -1    0    0  501  502 -0.0000000000e+00 -0.0000000000e+00 -2.8372170123e+01 2.8372170123e+01 0.0000000000e+00 0.0000e+00 -1.0000e+00
       25  2    1    2    0    0 +0.0000000000e+00 -1.4210854715e-14 +1.0930800895e+02 1.6605234920e+02 1.2500056741e+02 0.0000e+00 0.0000e+00
  9000006  2    3    3    0    0 -1.2310274863e+01 +4.0397257897e+01 +8.5028041728e+01 1.0302062507e+02 3.9999999950e+01 0.0000e+00 0.0000e+00
  9000006  2    3    3    0    0 +1.2310274863e+01 -4.0397257897e+01 +2.4279967226e+01 6.3031724134e+01 4.0000001575e+01 0.0000e+00 0.0000e+00
      -11  1    4    4    0    0 -2.0537398385e+00 +3.7139303199e+01 +8.4409197370e+01 9.2241304686e+01 0.0000000000e+00 0.0000e+00 1.0000e+00
       13  1    4    4    0    0 -1.0256535024e+01 +3.2579546975e+00 +6.1884435803e-01 1.0779320380e+01 0.0000000000e+00 0.0000e+00 1.0000e+00
      -11  1    5    5    0    0 +1.4253286950e+01 +1.1930875039e+00 +1.4281340104e+01 2.0212281461e+01 0.0000000000e+00 0.0000e+00 1.0000e+00
       13  1    5    5    0    0 -1.9430120878e+00 -4.1590345401e+01 +9.9986271220e+00 4.2819442673e+01 0.0000000000e+00 0.0000e+00 1.0000e+00
<mgrwt>
<rscale>  0 0.12500057E+03</rscale>
<asrwt>0</asrwt>
<pdfrwt beam="1">  1       21 0.34420043E-01 0.12500057E+03</pdfrwt>
<pdfrwt beam="2">  1       21 0.70930429E-02 0.12500057E+03</pdfrwt>
<totfact> 0.12017405E+06</totfact>
</mgrwt>
</event>
<event>
 9      1 +9.5563000e+06 1.25052600e+02 7.81860800e-03 1.23498700e-01
       21 -1    0    0  502  501 +0.0000000000e+00 +0.0000000000e+00 +9.1275989294e+00 9.1275989294e+00 0.0000000000e+00 0.0000e+00 -1.0000e+00
       21 -1    0    0  501  502 -0.0000000000e+00 -0.0000000000e+00 -4.2832058805e+02 4.2832058805e+02 0.0000000000e+00 0.0000e+00 -1.0000e+00
       25  2    1    2    0    0 +0.0000000000e+00 -3.5527136788e-15 -4.1919298912e+02 4.3744818698e+02 1.2505260559e+02 0.0000e+00 0.0000e+00
  9000006  2    3    3    0    0 -3.3473274652e+01 -3.1261411623e+01 -2.6050607149e+02 2.6750915734e+02 4.0000000084e+01 0.0000e+00 0.0000e+00
  9000006  2    3    3    0    0 +3.3473274652e+01 +3.1261411623e+01 -1.5868691763e+02 1.6993902964e+02 3.9999999926e+01 0.0000e+00 0.0000e+00
      -11  1    5    5    0    0 -2.4858746337e-02 +1.8497271165e+01 -2.2572851212e+01 2.9183613045e+01 0.0000000000e+00 0.0000e+00 1.0000e+00
       13  1    4    4    0    0 -1.6365579981e+01 +7.0144955854e+00 -1.0252563135e+02 1.0406027311e+02 0.0000000000e+00 0.0000e+00 1.0000e+00
      -11  1    4    4    0    0 -1.7107694672e+01 -3.8275907208e+01 -1.5798044014e+02 1.6344888423e+02 0.0000000000e+00 0.0000e+00 1.0000e+00
       13  1    5    5    0    0 +3.3498133399e+01 +1.2764140458e+01 -1.3611406642e+02 1.4075541659e+02 0.0000000000e+00 0.0000e+00 1.0000e+00
<mgrwt>
<rscale>  0 0.12505261E+03</rscale>
<asrwt>0</asrwt>
<pdfrwt beam="1">  1       21 0.22818998E-02 0.12505261E+03</pdfrwt>
<pdfrwt beam="2">  1       21 0.10708014E+00 0.12505261E+03</pdfrwt>
<totfact> 0.69859799E+05</totfact>
</mgrwt>
</event>
<event>
 9      1 +9.5563000e+06 1.24987600e+02 7.81860800e-03 1.23508900e-01
       21 -1    0    0  502  501 +0.0000000000e+00 +0.0000000000e+00 +1.3257162166e+01 1.3257162166e+01 0.0000000000e+00 0.0000e+00 -1.0000e+00
       21 -1    0    0  501  502 -0.0000000000e+00 -0.0000000000e+00 -2.9459345829e+02 2.9459345829e+02 0.0000000000e+00 0.0000e+00 -1.0000e+00
       25  2    1    2    0    0 +8.8817841970e-16 +0.0000000000e+00 -2.8133629613e+02 3.0785062046e+02 1.2498757137e+02 0.0000e+00 0.0000e+00
  9000006  2    3    3    0    0 -1.8048239269e-01 +4.0947138411e+01 -2.0242995365e+02 2.1036774196e+02 4.0000000068e+01 0.0000e+00 0.0000e+00
  9000006  2    3    3    0    0 +1.8048239269e-01 -4.0947138411e+01 -7.8906342483e+01 9.7482878501e+01 3.9999999987e+01 0.0000e+00 0.0000e+00
      -11  1    5    5    0    0 +1.4811279361e+01 -3.9708071166e+01 -5.5114266100e+01 6.9524723946e+01 0.0000000000e+00 0.0000e+00 1.0000e+00
       13  1    4    4    0    0 +5.6080746228e+00 +4.7154250122e+01 -1.5252494856e+02 1.5974615407e+02 0.0000000000e+00 0.0000e+00 1.0000e+00
      -11  1    4    4    0    0 -5.7885570155e+00 -6.2071117110e+00 -4.9905005083e+01 5.0621587889e+01 0.0000000000e+00 0.0000e+00 1.0000e+00
       13  1    5    5    0    0 -1.4630796968e+01 -1.2390672452e+00 -2.3792076382e+01 2.7958154555e+01 0.0000000000e+00 0.0000e+00 1.0000e+00
<mgrwt>
<rscale>  0 0.12498757E+03</rscale>
<asrwt>0</asrwt>
<pdfrwt beam="1">  1       21 0.33142906E-02 0.12498757E+03</pdfrwt>
<pdfrwt beam="2">  1       21 0.73648364E-01 0.12498757E+03</pdfrwt>
<totfact> 0.89213321E+05</totfact>
</mgrwt>
</event>
<event>
 9      1 +9.5563000e+06 1.24992300e+02 7.81860800e-03 1.23508100e-01
       21 -1    0    0  502  501 +0.0000000000e+00 +0.0000000000e+00 +1.6170746492e+02 1.6170746492e+02 0.0000000000e+00 0.0000e+00 -1.0000e+00
       21 -1    0    0  501  502 -0.0000000000e+00 -0.0000000000e+00 -2.4153317315e+01 2.4153317315e+01 0.0000000000e+00 0.0000e+00 -1.0000e+00
       25  2    1    2    0    0 +8.8817841970e-16 +0.0000000000e+00 +1.3755414761e+02 1.8586078223e+02 1.2499234716e+02 0.0000e+00 0.0000e+00
  9000006  2    3    3    0    0 -5.5353286060e+00 +4.3544540558e+01 +9.7725616802e+01 1.1435498704e+02 4.0000000083e+01 0.0000e+00 0.0000e+00
  9000006  2    3    3    0    0 +5.5353286060e+00 -4.3544540558e+01 +3.9828530804e+01 7.1505795194e+01 4.0000000065e+01 0.0000e+00 0.0000e+00
      -11  1    4    4    0    0 -1.8273801336e+01 +5.8632485331e+00 +3.8404763828e+01 4.2932917247e+01 0.0000000000e+00 0.0000e+00 1.0000e+00
       13  1    4    4    0    0 +1.2738472730e+01 +3.7681292025e+01 +5.9320852974e+01 7.1422069794e+01 0.0000000000e+00 0.0000e+00 1.0000e+00
      -11  1    5    5    0    0 -7.8327421934e+00 -9.8878934926e+00 -5.2664035172e+00 1.3669575487e+01 0.0000000000e+00 0.0000e+00 1.0000e+00
       13  1    5    5    0    0 +1.3368070799e+01 -3.3656647065e+01 +4.5094934321e+01 5.7836219707e+01 0.0000000000e+00 0.0000e+00 1.0000e+00
<mgrwt>
<rscale>  0 0.12499235E+03</rscale>
<asrwt>0</asrwt>
<pdfrwt beam="1">  1       21 0.40426863E-01 0.12499235E+03</pdfrwt>
<pdfrwt beam="2">  1       21 0.60383298E-02 0.12499235E+03</pdfrwt>
<totfact> 0.11498287E+06</totfact>
</mgrwt>
</event>
<event>
 9      1 +9.5563000e+06 1.25001500e+02 7.81860800e-03 1.23506700e-01
       21 -1    0    0  502  501 +0.0000000000e+00 +0.0000000000e+00 +1.9407293033e+01 1.9407293033e+01 0.0000000000e+00 0.0000e+00 1.0000e+00
       21 -1    0    0  501  502 -0.0000000000e+00 -0.0000000000e+00 -2.0128223862e+02 2.0128223862e+02 0.0000000000e+00 0.0000e+00 1.0000e+00
       25  2    1    2    0    0 +7.1054273576e-15 +0.0000000000e+00 -1.8187494559e+02 2.2068953166e+02 1.2500149419e+02 0.0000e+00 0.0000e+00
  9000006  2    3    3    0    0 +3.7060791114e+01 -1.6052680621e+01 -4.5063379303e+01 7.2538947813e+01 4.0000000031e+01 0.0000e+00 0.0000e+00
  9000006  2    3    3    0    0 -3.7060791114e+01 +1.6052680621e+01 -1.3681156629e+02 1.4815058384e+02 4.0000000374e+01 0.0000e+00 0.0000e+00
      -11  1    4    4    0    0 +1.9065674809e+01 +1.2709281351e+01 -1.8508524192e+01 2.9454902073e+01 0.0000000000e+00 0.0000e+00 1.0000e+00
       13  1    4    4    0    0 +1.7995116305e+01 -2.8761961973e+01 -2.6554855111e+01 4.3084045740e+01 0.0000000000e+00 0.0000e+00 1.0000e+00
      -11  1    5    5    0    0 -2.3022912928e+01 +3.6485301938e+00 -1.2217164644e+02 1.2437555020e+02 0.0000000000e+00 0.0000e+00 1.0000e+00
       13  1    5    5    0    0 -1.4037878187e+01 +1.2404150428e+01 -1.4639919844e+01 2.3775033646e+01 0.0000000000e+00 0.0000e+00 1.0000e+00
<mgrwt>
<rscale>  0 0.12500149E+03</rscale>
<asrwt>0</asrwt>
<pdfrwt beam="1">  1       21 0.48518234E-02 0.12500149E+03</pdfrwt>
<pdfrwt beam="2">  1       21 0.50320559E-01 0.12500149E+03</pdfrwt>
<totfact> 0.10656597E+06</totfact>
</mgrwt>
</event>
<event>
 8      1 +9.5563000e+06 1.25000100e+02 7.81860800e-03 1.23506900e-01
       21 -1    0    0  502  501 +0.0000000000e+00 +0.0000000000e+00 +1.0702191943e+02 1.0702191943e+02 0.0000000000e+00 0.0000e+00 1.0000e+00
       21 -1    0    0  501  502 -0.0000000000e+00 -0.0000000000e+00 -3.6499574457e+01 3.6499574457e+01 0.0000000000e+00 0.0000e+00 1.0000e+00
       25  2    1    2    0    0 +0.0000000000e+00 +1.7763568394e-15 +7.0522344976e+01 1.4352149389e+02 1.2500007227e+02 0.0000e+00 0.0000e+00
  9000006  2    3    3    0    0 +3.9746135500e+01 -1.0526788685e+01 +6.7715713944e+00 5.7761775690e+01 3.9999999806e+01 0.0000e+00 0.0000e+00
      -11  1    3    3    0    0 -2.4104183024e+01 +2.5448763538e+01 +4.5712305779e+01 5.7604393100e+01 0.0000000000e+00 0.0000e+00 1.0000e+00
       13  1    3    3    0    0 -1.5641952477e+01 -1.4921974853e+01 +1.8038467802e+01 2.8155325099e+01 0.0000000000e+00 0.0000e+00 1.0000e+00
      -11  1    4    4    0    0 +1.0739417544e+01 +1.0897796291e+00 +2.0858970480e+01 2.3486578258e+01 0.0000000000e+00 0.0000e+00 1.0000e+00
       13  1    4    4    0    0 +2.9006717957e+01 -1.1616568314e+01 -1.4087399085e+01 3.4275197432e+01 0.0000000000e+00 0.0000e+00 1.0000e+00
<mgrwt>
<rscale>  0 0.12500007E+03</rscale>
<asrwt>0</asrwt>
<pdfrwt beam="1">  1       21 0.26755479E-01 0.12500007E+03</pdfrwt>
<pdfrwt beam="2">  1       21 0.91248938E-02 0.12500007E+03</pdfrwt>
<totfact> 0.12659437E+06</totfact>
</mgrwt>
</event>
<event>
 9      1 +9.5563000e+06 1.25002300e+02 7.81860800e-03 1.23506600e-01
       21 -1    0    0  502  501 +0.0000000000e+00 +0.0000000000e+00 +4.3677462008e+01 4.3677462008e+01 0.0000000000e+00 0.0000e+00 1.0000e+00
       21 -1    0    0  501  502 -0.0000000000e+00 -0.0000000000e+00 -8.9437355751e+01 8.9437355751e+01 0.0000000000e+00 0.0000e+00 1.0000e+00
       25  2    1    2    0    0 +0.0000000000e+00 +0.0000000000e+00 -4.5759893743e+01 1.3311481776e+02 1.2500234730e+02 0.0000e+00 0.0000e+00
  9000006  2    3    3    0    0 +4.1325292930e+01 -2.4149441573e+01 -1.8698089246e+01 6.5119842601e+01 3.9999999936e+01 0.0000e+00 0.0000e+00
  9000006  2    3    3    0    0 -4.1325292930e+01 +2.4149441573e+01 -2.7061804497e+01 6.7994975158e+01 4.0000000252e+01 0.0000e+00 0.0000e+00
      -11  1    5    5    0    0 -2.8377343707e+01 +1.1745349735e+00 +2.3409073860e+00 2.8497947569e+01 0.0000000000e+00 0.0000e+00 1.0000e+00
       13  1    4    4    0    0 +2.4132476407e+01 -3.4543687343e+01 -1.0543933451e+01 4.3437510120e+01 0.0000000000e+00 0.0000e+00 1.0000e+00
      -11  1    4    4    0    0 +1.7192816522e+01 +1.0394245770e+01 -8.1541557951e+00 2.1682332481e+01 0.0000000000e+00 0.0000e+00 1.0000e+00
       13  1    5    5    0    0 -1.2947949223e+01 +2.2974906599e+01 -2.9402711883e+01 3.9497027589e+01 0.0000000000e+00 0.0000e+00 1.0000e+00
<mgrwt>
<rscale>  0 0.12500235E+03</rscale>
<asrwt>0</asrwt>
<pdfrwt beam="1">  1       21 0.10919366E-01 0.12500235E+03</pdfrwt>
<pdfrwt beam="2">  1       21 0.22359339E-01 0.12500235E+03</pdfrwt>
<totfact> 0.12971974E+06</totfact>
</mgrwt>
</event>
<event>
 9      1 +9.5563000e+06 1.24999900e+02 7.81860800e-03 1.23506900e-01
       21 -1    0    0  502  501 +0.0000000000e+00 +0.0000000000e+00 +1.4602170734e+01 1.4602170734e+01 0.0000000000e+00 0.0000e+00 -1.0000e+00
       21 -1    0    0  501  502 -0.0000000000e+00 -0.0000000000e+00 -2.6751125693e+02 2.6751125693e+02 0.0000000000e+00 0.0000e+00 -1.0000e+00
       25  2    1    2    0    0 +0.0000000000e+00 +1.7763568394e-15 -2.5290908620e+02 2.8211342766e+02 1.2499992075e+02 0.0000e+00 0.0000e+00
  9000006  2    3    3    0    0 -2.3853001552e+01 +1.4980085260e+00 -2.2046327199e+02 2.2533367260e+02 4.0000000003e+01 0.0000e+00 0.0000e+00
  9000006  2    3    3    0    0 +2.3853001552e+01 -1.4980085260e+00 -3.2445814206e+01 5.6779755060e+01 4.0000000157e+01 0.0000e+00 0.0000e+00
      -11  1    5    5    0    0 +1.6433930022e+01 -1.3775045777e+01 -1.5277334436e-01 2.1444096666e+01 0.0000000000e+00 0.0000e+00 1.0000e+00
       13  1    4    4    0    0 -1.3173857593e+01 +2.0746630203e+01 -1.1423646910e+02 1.1685009226e+02 0.0000000000e+00 0.0000e+00 1.0000e+00
      -11  1    4    4    0    0 -1.0679143959e+01 -1.9248621677e+01 -1.0622680289e+02 1.0848358034e+02 0.0000000000e+00 0.0000e+00 1.0000e+00
       13  1    5    5    0    0 +7.4190715302e+00 +1.2277037251e+01 -3.2293040861e+01 3.5335658394e+01 0.0000000000e+00 0.0000e+00 1.0000e+00
<mgrwt>
<rscale>  0 0.12499992E+03</rscale>
<asrwt>0</asrwt>
<pdfrwt beam="1">  1       21 0.36505427E-02 0.12499992E+03</pdfrwt>
<pdfrwt beam="2">  1       21 0.66877814E-01 0.12499992E+03</pdfrwt>
<totfact> 0.93860745E+05</totfact>
</mgrwt>
</event>
<event>
 9      1 +9.5563000e+06 1.25000800e+02 7.81860800e-03 1.23506800e-01
       21 -1    0    0  502  501 +0.0000000000e+00 +0.0000000000e+00 +6.3499915191e+01 6.3499915191e+01 0.0000000000e+00 0.0000e+00 -1.0000e+00
       21 -1    0    0  501  502 -0.0000000000e+00 -0.0000000000e+00 -6.1516657372e+01 6.1516657372e+01 0.0000000000e+00 0.0000e+00 -1.0000e+00
       25  2    1    2    0    0 +0.0000000000e+00 +0.0000000000e+00 +1.9832578193e+00 1.2501657256e+02 1.2500084041e+02 0.0000e+00 0.0000e+00
  9000006  2    3    3    0    0 +4.2154769338e+00 +3.7909994185e+01 +3.0173454397e+01 6.2971225593e+01 3.9999999970e+01 0.0000e+00 0.0000e+00
  9000006  2    3    3    0    0 -4.2154769338e+00 -3.7909994185e+01 -2.8190196577e+01 6.2045346970e+01 3.9999999909e+01 0.0000e+00 0.0000e+00
      -11  1    4    4    0    0 -4.3807013844e+00 +4.1825937109e+01 +3.2609175885e+01 5.3216143336e+01 0.0000000000e+00 0.0000e+00 1.0000e+00
       13  1    4    4    0    0 +8.5961783182e+00 -3.9159429245e+00 -2.4357214883e+00 9.7550822567e+00 0.0000000000e+00 0.0000e+00 1.0000e+00
      -11  1    5    5    0    0 -1.5842917566e+01 -3.7109138101e+00 -7.5533649513e-02 1.6271896743e+01 0.0000000000e+00 0.0000e+00 1.0000e+00
       13  1    5    5    0    0 +1.1627440632e+01 -3.4199080374e+01 -2.8114662928e+01 4.5773450227e+01 0.0000000000e+00 0.0000e+00 1.0000e+00
<mgrwt>
<rscale>  0 0.12500084E+03</rscale>
<asrwt>0</asrwt>
<pdfrwt beam="1">  1       21 0.15874979E-01 0.12500084E+03</pdfrwt>
<pdfrwt beam="2">  1       21 0.15379164E-01 0.12500084E+03</pdfrwt>
<totfact> 0.13225877E+06</totfact>
</mgrwt>
</event>
<event>
 9      1 +9.5563000e+06 1.24997400e+02 7.81860800e-03 1.23507300e-01
       21 -1    0    0  502  501 +0.0000000000e+00 +0.0000000000e+00 +4.6858628369e+02 4.6858628369e+02 0.0000000000e+00 0.0000e+00 -1.0000e+00
       21 -1    0    0  501  502 -0.0000000000e+00 -0.0000000000e+00 -8.3358946502e+00 8.3358946502e+00 0.0000000000e+00 0.0000e+00 -1.0000e+00
       25  2    1    2    0    0 +3.5527136788e-15 +3.5527136788e-15 +4.6025038904e+02 4.7692217834e+02 1.2499737430e+02 0.0000e+00 0.0000e+00
  9000006  2    3    3    0    0 +2.7991096644e+01 -2.5880275217e+01 +1.1870365613e+02 1.3093451832e+02 3.9999999665e+01 0.0000e+00 0.0000e+00
  9000006  2    3    3    0    0 -2.7991096644e+01 +2.5880275217e+01 +3.4154673291e+02 3.4598766001e+02 3.9999999829e+01 0.0000e+00 0.0000e+00
      -11  1    5    5    0    0 -2.2200826524e+00 -7.9766810778e+00 +2.0122673142e+01 2.1759553819e+01 0.0000000000e+00 0.0000e+00 1.0000e+00
       13  1    4    4    0    0 +1.8955580181e+01 -2.5923558843e+01 +3.8114221143e+01 4.9840132187e+01 0.0000000000e+00 0.0000e+00 1.0000e+00
      -11  1    4    4    0    0 +9.0355164628e+00 +4.3283625907e-02 +8.0589434987e+01 8.1094386136e+01 0.0000000000e+00 0.0000e+00 1.0000e+00
       13  1    5    5    0    0 -2.5771013991e+01 +3.3856956295e+01 +3.2142405976e+02 3.2422810619e+02 0.0000000000e+00 0.0000e+00 1.0000e+00
<mgrwt>
<rscale>  0 0.12499737E+03</rscale>
<asrwt>0</asrwt>
<pdfrwt beam="1">  1       21 0.11714648E+00 0.12499737E+03</pdfrwt>
<pdfrwt beam="2">  1       21 0.20839752E-02 0.12499737E+03</pdfrwt>
<totfact> 0.65254364E+05</totfact>
</mgrwt>
</event>
<event>
 9      1 +9.5563000e+06 1.25016900e+02 7.81860800e-03 1.23504300e-01
       21 -1    0    0  502  501 +0.0000000000e+00 +0.0000000000e+00 +2.7671064062e+01 2.7671064062e+01 0.0000000000e+00 0.0000e+00 -1.0000e+00
       21 -1    0    0  501  502 -0.0000000000e+00 -0.0000000000e+00 -1.4120558358e+02 1.4120558358e+02 0.0000000000e+00 0.0000e+00 -1.0000e+00
       25  2    1    2    0    0 +0.0000000000e+00 +0.0000000000e+00 -1.1353451952e+02 1.6887664764e+02 1.2501693884e+02 0.0000e+00 0.0000e+00
  9000006  2    3    3    0    0 +4.5711257337e+01 +1.1591154295e+01 -4.4428415793e+01 7.6143010313e+01 3.9999999805e+01 0.0000e+00 0.0000e+00
  9000006  2    3    3    0    0 -4.5711257337e+01 -1.1591154295e+01 -6.9106103725e+01 9.2733637329e+01 4.0000000187e+01 0.0000e+00 0.0000e+00
      -11  1    5    5    0    0 -2.2404168124e+01 +1.2199420239e+01 -4.4614905749e+01 5.1393213740e+01 0.0000000000e+00 0.0000e+00 1.0000e+00
       13  1    4    4    0    0 +5.1661671287e+01 +1.3679528903e+01 -4.4926329212e+01 6.9817138638e+01 0.0000000000e+00 0.0000e+00 1.0000e+00
      -11  1    4    4    0    0 -5.9504139500e+00 -2.0883746078e+00 +4.9791341830e-01 6.3258716752e+00 0.0000000000e+00 0.0000e+00 1.0000e+00
       13  1    5    5    0    0 -2.3307089214e+01 -2.3790574534e+01 -2.4491197976e+01 4.1340423590e+01 0.0000000000e+00 0.0000e+00 1.0000e+00
<mgrwt>
<rscale>  0 0.12501694E+03</rscale>
<asrwt>0</asrwt>
<pdfrwt beam="1">  1       21 0.69177660E-02 0.12501694E+03</pdfrwt>
<pdfrwt beam="2">  1       21 0.35301396E-01 0.12501694E+03</pdfrwt>
<totfact> 0.11935665E+06</totfact>
</mgrwt>
</event>
<event>
 9      1 +9.5563000e+06 1.25001000e+02 7.81860800e-03 1.23506800e-01
       21 -1    0    0  502  501 +0.0000000000e+00 +0.0000000000e+00 +1.4944022596e+01 1.4944022596e+01 0.0000000000e+00 0.0000e+00 -1.0000e+00
       21 -1    0    0  501  502 -0.0000000000e+00 -0.0000000000e+00 -2.6139642161e+02 2.6139642161e+02 0.0000000000e+00 0.0000e+00 -1.0000e+00
       25  2    1    2    0    0 -7.1054273576e-15 +0.0000000000e+00 -2.4645239901e+02 2.7634044420e+02 1.2500102449e+02 0.0000e+00 0.0000e+00
  9000006  2    3    3    0    0 +3.9205497545e+01 -1.1103836746e+01 -1.7941239055e+02 1.8827950532e+02 4.0000000139e+01 0.0000e+00 0.0000e+00
  9000006  2    3    3    0    0 -3.9205497545e+01 +1.1103836746e+01 -6.7040008460e+01 8.8060938886e+01 3.9999999937e+01 0.0000e+00 0.0000e+00
      -11  1    4    4    0    0 +1.9078789983e+01 +3.8063890321e+00 -1.4155651585e+02 1.4288714429e+02 0.0000000000e+00 0.0000e+00 1.0000e+00
       13  1    4    4    0    0 +2.0126707562e+01 -1.4910225778e+01 -3.7855874705e+01 4.5392361028e+01 0.0000000000e+00 0.0000e+00 1.0000e+00
      -11  1    5    5    0    0 -3.8731576200e+01 -3.1054569323e-01 -2.9122476638e+01 4.8459777951e+01 0.0000000000e+00 0.0000e+00 1.0000e+00
       13  1    5    5    0    0 -4.7392134542e-01 +1.1414382439e+01 -3.7917531822e+01 3.9601160935e+01 0.0000000000e+00 0.0000e+00 1.0000e+00
<mgrwt>
<rscale>  0 0.12500102E+03</rscale>
<asrwt>0</asrwt>
<pdfrwt beam="1">  1       21 0.37360057E-02 0.12500102E+03</pdfrwt>
<pdfrwt beam="2">  1       21 0.65349104E-01 0.12500102E+03</pdfrwt>
<totfact> 0.94956039E+05</totfact>
</mgrwt>
</event>
<event>
 9      1 +9.5563000e+06 1.24999300e+02 7.81860800e-03 1.23507000e-01
       21 -1    0    0  502  501 +0.0000000000e+00 +0.0000000000e+00 +3.6245887775e+01 3.6245887775e+01 0.0000000000e+00 0.0000e+00 1.0000e+00
       21 -1    0    0  501  502 -0.0000000000e+00 -0.0000000000e+00 -1.0776961760e+02 1.0776961760e+02 0.0000000000e+00 0.0000e+00 1.0000e+00
       25  2    1    2    0    0 -3.5527136788e-15 +0.0000000000e+00 -7.1523729828e+01 1.4401550538e+02 1.2499928744e+02 0.0000e+00 0.0000e+00
  9000006  2    3    3    0    0 -1.2157679171e+01 -3.1318423965e+01 +3.7740576110e+00 5.2372668039e+01 4.0000000052e+01 0.0000e+00 0.0000e+00
  9000006  2    3    3    0    0 +1.2157679171e+01 +3.1318423965e+01 -7.5297787439e+01 9.1642837339e+01 3.9999999997e+01 0.0000e+00 0.0000e+00
      -11  1    5    5    0    0 +4.1340522076e+00 -5.9762218734e+00 -3.7979887753e-02 7.2668464967e+00 0.0000000000e+00 0.0000e+00 1.0000e+00
       13  1    4    4    0    0 -2.1565054281e+01 -3.5726770613e+01 +4.4164728969e+00 4.1963781257e+01 0.0000000000e+00 0.0000e+00 1.0000e+00
      -11  1    4    4    0    0 +9.4073751102e+00 +4.4083466477e+00 -6.4241528590e-01 1.0408886782e+01 0.0000000000e+00 0.0000e+00 1.0000e+00
       13  1    5    5    0    0 +8.0236269631e+00 +3.7294645838e+01 -7.5259807552e+01 8.4375990842e+01 0.0000000000e+00 0.0000e+00 1.0000e+00
<mgrwt>
<rscale>  0 0.12499929E+03</rscale>
<asrwt>0</asrwt>
<pdfrwt beam="1">  1       21 0.90614720E-02 0.12499929E+03</pdfrwt>
<pdfrwt beam="2">  1       21 0.26942404E-01 0.12499929E+03</pdfrwt>
<totfact> 0.12645161E+06</totfact>
</mgrwt>
</event>
<event>
 9      1 +9.5563000e+06 1.24995700e+02 7.81860800e-03 1.23507600e-01
       21 -1    0    0  502  501 +0.0000000000e+00 +0.0000000000e+00 +1.6595163976e+01 1.6595163976e+01 0.0000000000e+00 0.0000e+00 -1.0000e+00
       21 -1    0    0  501  502 -0.0000000000e+00 -0.0000000000e+00 -2.3536857603e+02 2.3536857603e+02 0.0000000000e+00 0.0000e+00 -1.0000e+00
       25  2    1    2    0    0 +0.0000000000e+00 +0.0000000000e+00 -2.1877341206e+02 2.5196374001e+02 1.2499568175e+02 0.0000e+00 0.0000e+00
  9000006  2    3    3    0    0 -4.7701477453e+01 +5.2669298919e+00 -1.0600847752e+02 1.2304864404e+02 3.9999999922e+01 0.0000e+00 0.0000e+00
  9000006  2    3    3    0    0 +4.7701477453e+01 -5.2669298919e+00 -1.1276493454e+02 1.2891509596e+02 4.0000000052e+01 0.0000e+00 0.0000e+00
      -11  1    4    4    0    0 -1.0421166728e+01 +1.9357230416e+01 -2.9600663062e+01 3.6871429848e+01 0.0000000000e+00 0.0000e+00 1.0000e+00
       13  1    4    4    0    0 -3.7280310725e+01 -1.4090300524e+01 -7.6407814456e+01 8.6177214196e+01 0.0000000000e+00 0.0000e+00 1.0000e+00
      -11  1    5    5    0    0 +6.6372832198e-01 +1.6712435177e+00 +3.1502528580e+00 3.6273520990e+00 0.0000000000e+00 0.0000e+00 1.0000e+00
       13  1    5    5    0    0 +4.7037749131e+01 -6.9381734096e+00 -1.1591518740e+02 1.2528774386e+02 0.0000000000e+00 0.0000e+00 1.0000e+00
<mgrwt>
<rscale>  0 0.12499568E+03</rscale>
<asrwt>0</asrwt>
<pdfrwt beam="1">  1       21 0.41487910E-02 0.12499568E+03</pdfrwt>
<pdfrwt beam="2">  1       21 0.58842143E-01 0.12499568E+03</pdfrwt>
<totfact> 0.99821965E+05</totfact>
</mgrwt>
</event>
<event>
 9      1 +9.5563000e+06 1.25005600e+02 7.81860800e-03 1.23506000e-01
       21 -1    0    0  502  501 +0.0000000000e+00 +0.0000000000e+00 +6.4789736970e+02 6.4789736970e+02 0.0000000000e+00 0.0000e+00 1.0000e+00
       21 -1    0    0  501  502 -0.0000000000e+00 -0.0000000000e+00 -6.0296626459e+00 6.0296626459e+00 0.0000000000e+00 0.0000e+00 1.0000e+00
       25  2    1    2    0    0 +0.0000000000e+00 +0.0000000000e+00 +6.4186770705e+02 6.5392703234e+02 1.2500564097e+02 0.0000e+00 0.0000e+00
  9000006  2    3    3    0    0 +9.1266109284e+00 -4.1241668761e+01 +4.4050177689e+02 4.4432644049e+02 4.0000000086e+01 0.0000e+00 0.0000e+00
  9000006  2    3    3    0    0 -9.1266109284e+00 +4.1241668761e+01 +2.0136593016e+02 2.0960059185e+02 4.0000000072e+01 0.0000e+00 0.0000e+00
      -11  1    5    5    0    0 +3.5264720643e+00 +1.1066442077e+01 +9.6155951575e+00 1.5078521668e+01 0.0000000000e+00 0.0000e+00 1.0000e+00
       13  1    4    4    0    0 +2.1515850724e+01 -2.9249095338e+01 +3.6868462163e+02 3.7046834093e+02 0.0000000000e+00 0.0000e+00 1.0000e+00
      -11  1    4    4    0    0 -1.2389239796e+01 -1.1992573423e+01 +7.1817155262e+01 7.3858099556e+01 0.0000000000e+00 0.0000e+00 1.0000e+00
       13  1    5    5    0    0 -1.2653082993e+01 +3.0175226684e+01 +1.9175033500e+02 1.9452207018e+02 0.0000000000e+00 0.0000e+00 1.0000e+00
<mgrwt>
<rscale>  0 0.12500564E+03</rscale>
<asrwt>0</asrwt>
<pdfrwt beam="1">  1       21 0.16197411E+00 0.12500564E+03</pdfrwt>
<pdfrwt beam="2">  1       21 0.15074179E-02 0.12500564E+03</pdfrwt>
<totfact> 0.48354518E+05</totfact>
</mgrwt>
</event>
<event>
 9      1 +9.5563000e+06 1.25000700e+02 7.81860800e-03 1.23506800e-01
       21 -1    0    0  502  501 +0.0000000000e+00 +0.0000000000e+00 +2.1128429552e+02 2.1128429552e+02 0.0000000000e+00 0.0000e+00 -1.0000e+00
       21 -1    0    0  501  502 -0.0000000000e+00 -0.0000000000e+00 -1.8488335787e+01 1.8488335787e+01 0.0000000000e+00 0.0000e+00 -1.0000e+00
       25  2    1    2    0    0 -1.3322676296e-15 +7.1054273576e-15 +1.9279595973e+02 2.2977263130e+02 1.2500072003e+02 0.0000e+00 0.0000e+00
  9000006  2    3    3    0    0 +2.0363717509e+00 -4.7753415194e+01 +1.0497251316e+02 1.2208097312e+02 4.0000000069e+01 0.0000e+00 0.0000e+00
  9000006  2    3    3    0    0 -2.0363717509e+00 +4.7753415194e+01 +8.7823446565e+01 1.0769165818e+02 4.0000000037e+01 0.0000e+00 0.0000e+00
      -11  1    4    4    0    0 +3.5260647911e+00 -3.7532241114e+00 -2.6574058608e+00 5.7949659231e+00 0.0000000000e+00 0.0000e+00 1.0000e+00
       13  1    4    4    0    0 -1.4896930402e+00 -4.4000191082e+01 +1.0762991903e+02 1.1628600720e+02 0.0000000000e+00 0.0000e+00 1.0000e+00
      -11  1    5    5    0    0 +1.0491906889e+01 -2.2860987303e+00 +1.5593237728e+01 1.8932918962e+01 0.0000000000e+00 0.0000e+00 1.0000e+00
       13  1    5    5    0    0 -1.2528278639e+01 +5.0039513924e+01 +7.2230208837e+01 8.8758739221e+01 0.0000000000e+00 0.0000e+00 1.0000e+00
<mgrwt>
<rscale>  0 0.12500072E+03</rscale>
<asrwt>0</asrwt>
<pdfrwt beam="1">  1       21 0.52821066E-01 0.12500072E+03</pdfrwt>
<pdfrwt beam="2">  1       21 0.46220846E-02 0.12500072E+03</pdfrwt>
<totfact> 0.10453673E+06</totfact>
</mgrwt>
</event>
<event>
 9      1 +9.5563000e+06 1.25002000e+02 7.81860800e-03 1.23506600e-01
       21 -1    0    0  502  501 +0.0000000000e+00 +0.0000000000e+00 +2.0699003192e+02 2.0699003192e+02 0.0000000000e+00 0.0000e+00 1.0000e+00
       21 -1    0    0  501  502 -0.0000000000e+00 -0.0000000000e+00 -1.8872291934e+01 1.8872291934e+01 0.0000000000e+00 0.0000e+00 1.0000e+00
       25  2    1    2    0    0 +0.0000000000e+00 +0.0000000000e+00 +1.8811773999e+02 2.2586232386e+02 1.2500202094e+02 0.0000e+00 0.0000e+00
  9000006  2    3    3    0    0 +2.5800634566e+01 -2.7939527555e+00 +1.6707288091e+02 1.7374356522e+02 4.0000000063e+01 0.0000e+00 0.0000e+00
  9000006  2    3    3    0    0 -2.5800634566e+01 +2.7939527555e+00 +2.1044859081e+01 5.2118758635e+01 3.9999999899e+01 0.0000e+00 0.0000e+00
      -11  1    5    5    0    0 -3.4274776331e+00 +2.6156445973e+00 -1.1694834129e+01 1.2464282767e+01 0.0000000000e+00 0.0000e+00 1.0000e+00
       13  1    4    4    0    0 +3.1232944895e+00 -1.4313521550e+01 +2.1829917996e+01 2.6290248902e+01 0.0000000000e+00 0.0000e+00 1.0000e+00
      -11  1    4    4    0    0 +2.2677340076e+01 +1.1519568794e+01 +1.4524296291e+02 1.4745331632e+02 0.0000000000e+00 0.0000e+00 1.0000e+00
       13  1    5    5    0    0 -2.2373156933e+01 +1.7830815821e-01 +3.2739693210e+01 3.9654475869e+01 0.0000000000e+00 0.0000e+00 1.0000e+00
<mgrwt>
<rscale>  0 0.12500202E+03</rscale>
<asrwt>0</asrwt>
<pdfrwt beam="1">  1       21 0.51747501E-01 0.12500202E+03</pdfrwt>
<pdfrwt beam="2">  1       21 0.47180736E-02 0.12500202E+03</pdfrwt>
<totfact> 0.10540032E+06</totfact>
</mgrwt>
</event>
<event>
 8      1 +9.5563000e+06 1.24999100e+02 7.81860800e-03 1.23507100e-01
       21 -1    0    0  502  501 +0.0000000000e+00 +0.0000000000e+00 +3.2749211474e+01 3.2749211474e+01 0.0000000000e+00 0.0000e+00 -1.0000e+00
       21 -1    0    0  501  502 -0.0000000000e+00 -0.0000000000e+00 -1.1927588744e+02 1.1927588744e+02 0.0000000000e+00 0.0000e+00 -1.0000e+00
       25  2    1    2    0    0 +0.0000000000e+00 +0.0000000000e+00 -8.6526675963e+01 1.5202509891e+02 1.2499906018e+02 0.0000e+00 0.0000e+00
  9000006  2    3    3    0    0 -5.3816053549e+00 -3.0160705548e+01 +1.7127791076e+00 5.0413921149e+01 3.9999999975e+01 0.0000e+00 0.0000e+00
      -11  1    3    3    0    0 -3.4456076688e+00 -9.0325347870e+00 -2.3610220241e+01 2.5512769287e+01 0.0000000000e+00 0.0000e+00 1.0000e+00
       13  1    3    3    0    0 +8.8272130237e+00 +3.9193240335e+01 -6.4629234830e+01 7.6098408475e+01 0.0000000000e+00 0.0000e+00 1.0000e+00
      -11  1    4    4    0    0 +4.7480803230e-01 -1.9395724410e+01 +2.0344867104e+01 2.8112865125e+01 0.0000000000e+00 0.0000e+00 1.0000e+00
       13  1    4    4    0    0 -5.8564133872e+00 -1.0764981138e+01 -1.8632087997e+01 2.2301056024e+01 0.0000000000e+00 0.0000e+00 1.0000e+00
<mgrwt>
<rscale>  0 0.12499906E+03</rscale>
<asrwt>0</asrwt>
<pdfrwt beam="1">  1       21 0.81873030E-02 0.12499906E+03</pdfrwt>
<pdfrwt beam="2">  1       21 0.29818972E-01 0.12499906E+03</pdfrwt>
<totfact> 0.12411018E+06</totfact>
</mgrwt>
</event>
<event>
 9      1 +9.5563000e+06 1.25000100e+02 7.81860800e-03 1.23506900e-01
       21 -1    0    0  502  501 +0.0000000000e+00 +0.0000000000e+00 +5.0591311545e+01 5.0591311545e+01 0.0000000000e+00 0.0000e+00 -1.0000e+00
       21 -1    0    0  501  502 -0.0000000000e+00 -0.0000000000e+00 -7.7212023081e+01 7.7212023081e+01 0.0000000000e+00 0.0000e+00 -1.0000e+00
       25  2    1    2    0    0 +0.0000000000e+00 -8.8817841970e-16 -2.6620711536e+01 1.2780333463e+02 1.2500012023e+02 0.0000e+00 0.0000e+00
  9000006  2    3    3    0    0 -1.6157369015e+01 -6.6734469431e+00 -5.9042190128e+01 7.3427349692e+01 4.0000000000e+01 0.0000e+00 0.0000e+00
  9000006  2    3    3    0    0 +1.6157369015e+01 +6.6734469431e+00 +3.2421478592e+01 5.4375984934e+01 3.9999999948e+01 0.0000e+00 0.0000e+00
      -11  1    4    4    0    0 -2.7102887059e+01 -7.1513016737e+00 -2.4633173215e+01 3.7316227371e+01 0.0000000000e+00 0.0000e+00 1.0000e+00
       13  1    4    4    0    0 +1.0945518043e+01 +4.7785473063e-01 -3.4409016913e+01 3.6111122321e+01 0.0000000000e+00 0.0000e+00 1.0000e+00
      -11  1    5    5    0    0 +2.8198632023e+01 -2.7171593160e+00 +2.2341955041e+01 3.6079201180e+01 0.0000000000e+00 0.0000e+00 1.0000e+00
       13  1    5    5    0    0 -1.2041263008e+01 +9.3906062591e+00 +1.0079523551e+01 1.8296783754e+01 0.0000000000e+00 0.0000e+00 1.0000e+00
<mgrwt>
<rscale>  0 0.12500012E+03</rscale>
<asrwt>0</asrwt>
<pdfrwt beam="1">  1       21 0.12647828E-01 0.12500012E+03</pdfrwt>
<pdfrwt beam="2">  1       21 0.19303006E-01 0.12500012E+03</pdfrwt>
<totfact> 0.13139074E+06</totfact>
</mgrwt>
</event>
<event>
 9      1 +9.5563000e+06 1.25002500e+02 7.81860800e-03 1.23506500e-01
       21 -1    0    0  502  501 +0.0000000000e+00 +0.0000000000e+00 +6.2072917100e+01 6.2072917100e+01 0.0000000000e+00 0.0000e+00 1.0000e+00
       21 -1    0    0  501  502 -0.0000000000e+00 -0.0000000000e+00 -6.2932549055e+01 6.2932549055e+01 0.0000000000e+00 0.0000e+00 1.0000e+00
       25  2    1    2    0    0 +0.0000000000e+00 +0.0000000000e+00 -8.5963195503e-01 1.2500546615e+02 1.2500251038e+02 0.0000e+00 0.0000e+00
  9000006  2    3    3    0    0 +4.4885129098e+01 -1.5091267032e+01 -8.4291142884e+00 6.2557742276e+01 3.9999999953e+01 0.0000e+00 0.0000e+00
  9000006  2    3    3    0    0 -4.4885129098e+01 +1.5091267032e+01 +7.5694823334e+00 6.2447723878e+01 4.0000000001e+01 0.0000e+00 0.0000e+00
      -11  1    5    5    0    0 -4.2752701105e+01 +2.2236545542e+01 +1.6387132623e+01 5.0899857809e+01 0.0000000000e+00 0.0000e+00 1.0000e+00
       13  1    4    4    0    0 +2.0432543759e+01 +5.3066825602e+00 -1.9605242152e+01 2.8809985145e+01 0.0000000000e+00 0.0000e+00 1.0000e+00
      -11  1    4    4    0    0 +2.4452585339e+01 -2.0397949592e+01 +1.1176127863e+01 3.3747757131e+01 0.0000000000e+00 0.0000e+00 1.0000e+00
       13  1    5    5    0    0 -2.1324279928e+00 -7.1452785099e+00 -8.8176502895e+00 1.1547866069e+01 0.0000000000e+00 0.0000e+00 1.0000e+00
<mgrwt>
<rscale>  0 0.12500251E+03</rscale>
<asrwt>0</asrwt>
<pdfrwt beam="1">  1       21 0.15518229E-01 0.12500251E+03</pdfrwt>
<pdfrwt beam="2">  1       21 0.15733137E-01 0.12500251E+03</pdfrwt>
<totfact> 0.13225639E+06</totfact>
</mgrwt>
</event>
<event>
 9      1 +9.5563000e+06 1.24999000e+02 7.81860800e-03 1.23507100e-01
       21 -1    0    0  502  501 +0.0000000000e+00 +0.0000000000e+00 +1.9655684782e+01 1.9655684782e+01 0.0000000000e+00 0.0000e+00 1.0000e+00
       21 -1    0    0  501  502 -0.0000000000e+00 -0.0000000000e+00 -1.9873068883e+02 1.9873068883e+02 0.0000000000e+00 0.0000e+00 1.0000e+00
       25  2    1    2    0    0 +0.0000000000e+00 +0.0000000000e+00 -1.7907500405e+02 2.1838637361e+02 1.2499900442e+02 0.0000e+00 0.0000e+00
  9000006  2    3    3    0    0 +6.9601609345e+00 +9.9326247703e+00 -8.3565679974e+00 4.2625498346e+01 4.0000000069e+01 0.0000e+00 0.0000e+00
  9000006  2    3    3    0    0 -6.9601609345e+00 -9.9326247703e+00 -1.7071843605e+02 1.7576087527e+02 3.9999999896e+01 0.0000e+00 0.0000e+00
      -11  1    4    4    0    0 +2.3102526227e+01 +9.0960885861e+00 -9.1014506664e+00 2.6444317913e+01 0.0000000000e+00 0.0000e+00 1.0000e+00
       13  1    4    4    0    0 -1.6142365293e+01 +8.3653618417e-01 +7.4488266899e-01 1.6181180433e+01 0.0000000000e+00 0.0000e+00 1.0000e+00
      -11  1    5    5    0    0 -1.9249289087e+01 -6.2550803868e+00 -4.4434354787e+01 4.8826970480e+01 0.0000000000e+00 0.0000e+00 1.0000e+00
       13  1    5    5    0    0 +1.2289128153e+01 -3.6775443835e+00 -1.2628408126e+02 1.2693390479e+02 0.0000000000e+00 0.0000e+00 1.0000e+00
<mgrwt>
<rscale>  0 0.12499900E+03</rscale>
<asrwt>0</asrwt>
<pdfrwt beam="1">  1       21 0.49139212E-02 0.12499900E+03</pdfrwt>
<pdfrwt beam="2">  1       21 0.49682673E-01 0.12499900E+03</pdfrwt>
<totfact> 0.10709768E+06</totfact>
</mgrwt>
</event>
<event>
 9      1 +9.5563000e+06 1.24998800e+02 7.81860800e-03 1.23507100e-01
       21 -1    0    0  502  501 +0.0000000000e+00 +0.0000000000e+00 +2.6104973117e+02 2.6104973117e+02 0.0000000000e+00 0.0000e+00 1.0000e+00
       21 -1    0    0  501  502 -0.0000000000e+00 -0.0000000000e+00 -1.4963339358e+01 1.4963339358e+01 0.0000000000e+00 0.0000e+00 1.0000e+00
       25  2    1    2    0    0 +0.0000000000e+00 +0.0000000000e+00 +2.4608639181e+02 2.7601307053e+02 1.2499881146e+02 0.0000e+00 0.0000e+00
  9000006  2    3    3    0    0 -6.7523541906e+00 +7.1880242873e+00 +1.9263320975e+01 4.5478978808e+01 3.9999999977e+01 0.0000e+00 0.0000e+00
  9000006  2    3    3    0    0 +6.7523541906e+00 -7.1880242873e+00 +2.2682307084e+02 2.3053409172e+02 4.0000000017e+01 0.0000e+00 0.0000e+00
      -11  1    5    5    0    0 +6.8981153462e+00 +1.1416019840e+01 +1.7436798884e+02 1.7487740001e+02 0.0000000000e+00 0.0000e+00 1.0000e+00
       13  1    4    4    0    0 -8.3481218304e+00 +2.3417674246e+01 +1.2460669419e+01 2.7809115188e+01 0.0000000000e+00 0.0000e+00 1.0000e+00
      -11  1    4    4    0    0 +1.5957676398e+00 -1.6229649959e+01 +6.8026515560e+00 1.7669863620e+01 0.0000000000e+00 0.0000e+00 1.0000e+00
       13  1    5    5    0    0 -1.4576115555e-01 -1.8604044127e+01 +5.2455081997e+01 5.5656691705e+01 0.0000000000e+00 0.0000e+00 1.0000e+00
<mgrwt>
<rscale>  0 0.12499881E+03</rscale>
<asrwt>0</asrwt>
<pdfrwt beam="1">  1       21 0.65262418E-01 0.12499881E+03</pdfrwt>
<pdfrwt beam="2">  1       21 0.37408357E-02 0.12499881E+03</pdfrwt>
<totfact> 0.95024339E+05</totfact>
</mgrwt>
</event>
<event>
 8      1 +9.5563000e+06 1.24991300e+02 7.81860800e-03 1.23508300e-01
       21 -1    0    0  502  501 +0.0000000000e+00 +0.0000000000e+00 +2.6827440579e+02 2.6827440579e+02 0.0000000000e+00 0.0000e+00 -1.0000e+00
       21 -1    0    0  501  502 -0.0000000000e+00 -0.0000000000e+00 -1.4558616573e+01 1.4558616573e+01 0.0000000000e+00 0.0000e+00 -1.0000e+00
       25  2    1    2    0    0 +3.5527136788e-15 +0.0000000000e+00 +2.5371578922e+02 2.8283302237e+02 1.2499126706e+02 0.0000e+00 0.0000e+00
  9000006  2    3    3    0    0 -1.1385894481e+01 -4.0365943753e+01 +1.7976427618e+02 1.8887626371e+02 3.9999999934e+01 0.0000e+00 0.0000e+00
      -11  1    4    4    0    0 -8.7065050453e-01 +5.8135544683e+00 +4.7228259357e+00 7.5405923293e+00 0.0000000000e+00 0.0000e+00 1.0000e+00
       13  1    3    3    0    0 -1.4612687297e+01 +1.9073840389e+01 +3.5796755526e+01 4.3113219822e+01 0.0000000000e+00 0.0000e+00 1.0000e+00
      -11  1    3    3    0    0 +2.5998581778e+01 +2.1292103364e+01 +3.8154757516e+01 5.0843538835e+01 0.0000000000e+00 0.0000e+00 1.0000e+00
       13  1    4    4    0    0 -1.0515243976e+01 -4.6179498221e+01 +1.7504145024e+02 1.8133567138e+02 0.0000000000e+00 0.0000e+00 1.0000e+00
<mgrwt>
<rscale>  0 0.12499127E+03</rscale>
<asrwt>0</asrwt>
<pdfrwt beam="1">  1       21 0.67068585E-01 0.12499127E+03</pdfrwt>
<pdfrwt beam="2">  1       21 0.36396550E-02 0.12499127E+03</pdfrwt>
<totfact> 0.93746252E+05</totfact>
</mgrwt>
</event>
<event>
 9      1 +9.5563000e+06 1.25002100e+02 7.81860800e-03 1.23506600e-01
       21 -1    0    0  502  501 +0.0000000000e+00 +0.0000000000e+00 +2.3823507263e+01 2.3823507263e+01 0.0000000000e+00 0.0000e+00 -1.0000e+00
       21 -1    0    0  501  502 -0.0000000000e+00 -0.0000000000e+00 -1.6397182871e+02 1.6397182871e+02 0.0000000000e+00 0.0000e+00 -1.0000e+00
       25  2    1    2    0    0 +7.1054273576e-15 -1.7763568394e-15 -1.4014832144e+02 1.8779533597e+02 1.2500214481e+02 0.0000e+00 0.0000e+00
  9000006  2    3    3    0    0 +1.9414233033e+01 +1.5321004244e+01 -8.2271552511e+00 4.7742347039e+01 4.0000000024e+01 0.0000e+00 0.0000e+00
  9000006  2    3    3    0    0 -1.9414233033e+01 -1.5321004244e+01 -1.3192116619e+02 1.4005298893e+02 4.0000000042e+01 0.0000e+00 0.0000e+00
      -11  1    4    4    0    0 +5.5080047887e+00 -8.1036251649e+00 +1.0747780230e+01 1.4543783464e+01 0.0000000000e+00 0.0000e+00 1.0000e+00
       13  1    4    4    0    0 +1.3906228244e+01 +2.3424629409e+01 -1.8974935481e+01 3.3198563575e+01 0.0000000000e+00 0.0000e+00 1.0000e+00
      -11  1    5    5    0    0 -1.0594761665e+01 -1.4808585756e+01 -1.2966214379e+02 1.3093439089e+02 0.0000000000e+00 0.0000e+00 1.0000e+00
       13  1    5    5    0    0 -8.8194713679e+00 -5.1241848759e-01 -2.2590224031e+00 9.1185980355e+00 0.0000000000e+00 0.0000e+00 1.0000e+00
<mgrwt>
<rscale>  0 0.12500214E+03</rscale>
<asrwt>0</asrwt>
<pdfrwt beam="1">  1       21 0.59558769E-02 0.12500214E+03</pdfrwt>
<pdfrwt beam="2">  1       21 0.40992957E-01 0.12500214E+03</pdfrwt>
<totfact> 0.11446051E+06</totfact>
</mgrwt>
</event>
<event>
 9      1 +9.5563000e+06 1.25002800e+02 7.81860800e-03 1.23506500e-01
       21 -1    0    0  502  501 +0.0000000000e+00 +0.0000000000e+00 +9.2891856845e+01 9.2891856845e+01 0.0000000000e+00 0.0000e+00 1.0000e+00
       21 -1    0    0  501  502 -0.0000000000e+00 -0.0000000000e+00 -4.2053438897e+01 4.2053438897e+01 0.0000000000e+00 0.0000e+00 1.0000e+00
       25  2    1    2    0    0 +0.0000000000e+00 +0.0000000000e+00 +5.0838417949e+01 1.3494529574e+02 1.2500275238e+02 0.0000e+00 0.0000e+00
  9000006  2    3    3    0    0 -3.1276088430e+01 -3.2795297630e+01 +4.2580028009e+01 7.3937703955e+01 4.0000000335e+01 0.0000e+00 0.0000e+00
  9000006  2    3    3    0    0 +3.1276088430e+01 +3.2795297630e+01 +8.2583899398e+00 6.1007591787e+01 3.9999999964e+01 0.0000e+00 0.0000e+00
      -11  1    4    4    0    0 -1.7636430293e+01 -1.8450418876e+00 +3.5060008351e+01 3.9289337467e+01 0.0000000000e+00 0.0000e+00 1.0000e+00
       13  1    4    4    0    0 -1.3639658137e+01 -3.0950255742e+01 +7.5200196577e+00 3.4648366488e+01 0.0000000000e+00 0.0000e+00 1.0000e+00
      -11  1    5    5    0    0 +5.7868070391e+00 -8.8340105921e+00 +5.9918989606e+00 1.2142064569e+01 0.0000000000e+00 0.0000e+00 1.0000e+00
       13  1    5    5    0    0 +2.5489281391e+01 +4.1629308222e+01 +2.2664909791e+00 4.8865527217e+01 0.0000000000e+00 0.0000e+00 1.0000e+00
<mgrwt>
<rscale>  0 0.12500275E+03</rscale>
<asrwt>0</asrwt>
<pdfrwt beam="1">  1       21 0.23222964E-01 0.12500275E+03</pdfrwt>
<pdfrwt beam="2">  1       21 0.10513360E-01 0.12500275E+03</pdfrwt>
<totfact> 0.12915656E+06</totfact>
</mgrwt>
</event>
<event>
 9      1 +9.5563000e+06 1.24998300e+02 7.81860800e-03 1.23507200e-01
       21 -1    0    0  502  501 +0.0000000000e+00 +0.0000000000e+00 +4.2550561360e+01 4.2550561360e+01 0.0000000000e+00 0.0000e+00 -1.0000e+00
       21 -1    0    0  501  502 -0.0000000000e+00 -0.0000000000e+00 -9.1800106050e+01 9.1800106050e+01 0.0000000000e+00 0.0000e+00 -1.0000e+00
       25  2    1    2    0    0 +0.0000000000e+00 +0.0000000000e+00 -4.9249544691e+01 1.3435066741e+02 1.2499833671e+02 0.0000e+00 0.0000e+00
  9000006  2    3    3    0    0 -2.4294195571e+01 +3.0734242901e+01 +5.2262880794e+00 5.6232692687e+01 4.0000000182e+01 0.0000e+00 0.0000e+00
  9000006  2    3    3    0    0 +2.4294195571e+01 -3.0734242901e+01 -5.4475832770e+01 7.8117974723e+01 3.9999999922e+01 0.0000e+00 0.0000e+00
      -11  1    5    5    0    0 +2.6351008373e+01 -3.5331765706e+01 -3.0454058593e+01 5.3573864850e+01 0.0000000000e+00 0.0000e+00 1.0000e+00
       13  1    4    4    0    0 -2.2844801658e+01 -1.3038436541e+00 +7.5041248017e+00 2.4081047737e+01 0.0000000000e+00 0.0000e+00 1.0000e+00
      -11  1    4    4    0    0 -1.4493939127e+00 +3.2038086555e+01 -2.2778367223e+00 3.2151644950e+01 0.0000000000e+00 0.0000e+00 1.0000e+00
       13  1    5    5    0    0 -2.0568128024e+00 +4.5975228050e+00 -2.4021774177e+01 2.4544109873e+01 0.0000000000e+00 0.0000e+00 1.0000e+00
<mgrwt>
<rscale>  0 0.12499834E+03</rscale>
<asrwt>0</asrwt>
<pdfrwt beam="1">  1       21 0.10637640E-01 0.12499834E+03</pdfrwt>
<pdfrwt beam="2">  1       21 0.22950026E-01 0.12499834E+03</pdfrwt>
<totfact> 0.12935354E+06</totfact>
</mgrwt>
</event>
<event>
 9      1 +9.5563000e+06 1.24995500e+02 7.81860800e-03 1.23507600e-01
       21 -1    0    0  502  501 +0.0000000000e+00 +0.0000000000e+00 +1.1394192200e+01 1.1394192200e+01 0.0000000000e+00 0.0000e+00 1.0000e+00
       21 -1    0    0  501  502 -0.0000000000e+00 -0.0000000000e+00 -3.4280330360e+02 3.4280330360e+02 0.0000000000e+00 0.0000e+00 1.0000e+00
       25  2    1    2    0    0 +0.0000000000e+00 +8.8817841970e-16 -3.3140911140e+02 3.5419749580e+02 1.2499546757e+02 0.0000e+00 0.0000e+00
  9000006  2    3    3    0    0 -4.6130886415e+01 +4.7902956214e+00 -1.3042991474e+02 1.4409360935e+02 3.9999999768e+01 0.0000e+00 0.0000e+00
  9000006  2    3    3    0    0 +4.6130886415e+01 -4.7902956214e+00 -2.0097919666e+02 2.1010388646e+02 3.9999999998e+01 0.0000e+00 0.0000e+00
      -11  1    4    4    0    0 +2.4047008917e-01 +8.0664292598e+00 -3.2781396176e+00 8.7104136653e+00 0.0000000000e+00 0.0000e+00 1.0000e+00
       13  1    4    4    0    0 -4.6371356504e+01 -3.2761336384e+00 -1.2715177512e+02 1.3538319568e+02 0.0000000000e+00 0.0000e+00 1.0000e+00
      -11  1    5    5    0    0 +4.6220236904e+01 -2.5243978141e+00 -2.0226699397e+02 2.0749607161e+02 0.0000000000e+00 0.0000e+00 1.0000e+00
       13  1    5    5    0    0 -8.9350489077e-02 -2.2658978073e+00 +1.2877973064e+00 2.6078148488e+00 0.0000000000e+00 0.0000e+00 1.0000e+00
<mgrwt>
<rscale>  0 0.12499547E+03</rscale>
<asrwt>0</asrwt>
<pdfrwt beam="1">  1       21 0.28485481E-02 0.12499547E+03</pdfrwt>
<pdfrwt beam="2">  1       21 0.85700825E-01 0.12499547E+03</pdfrwt>
<totfact> 0.81579326E+05</totfact>
</mgrwt>
</event>
<event>
 9      1 +9.5563000e+06 1.25000600e+02 7.81860800e-03 1.23506800e-01
       21 -1    0    0  502  501 +0.0000000000e+00 +0.0000000000e+00 +8.5723773996e+02 8.5723773996e+02 0.0000000000e+00 0.0000e+00 1.0000e+00
       21 -1    0    0  501  502 -0.0000000000e+00 -0.0000000000e+00 -4.5568325146e+00 4.5568325146e+00 0.0000000000e+00 0.0000e+00 1.0000e+00
       25  2    1    2    0    0 +0.0000000000e+00 +0.0000000000e+00 +8.5268090744e+02 8.6179457247e+02 1.2500062090e+02 0.0000e+00 0.0000e+00
  9000006  2    3    3    0    0 -1.8858549014e+01 +1.5126850036e+01 +7.1241930556e+02 7.1395079201e+02 4.0000000136e+01 0.0000e+00 0.0000e+00
  9000006  2    3    3    0    0 +1.8858549014e+01 -1.5126850036e+01 +1.4026160189e+02 1.4784378047e+02 3.9999999955e+01 0.0000e+00 0.0000e+00
      -11  1    4    4    0    0 -5.0274797998e+00 +5.5750387853e-01 +9.6582502649e+00 1.0902667650e+01 0.0000000000e+00 0.0000e+00 1.0000e+00
       13  1    4    4    0    0 -1.3831069214e+01 +1.4569346157e+01 +7.0276105529e+02 7.0304812435e+02 0.0000000000e+00 0.0000e+00 1.0000e+00
      -11  1    5    5    0    0 +1.5285513057e+01 -1.2192021118e+01 +1.4166792516e+02 1.4301081535e+02 0.0000000000e+00 0.0000e+00 1.0000e+00
       13  1    5    5    0    0 +3.5730359570e+00 -2.9348289178e+00 -1.4063232688e+00 4.8329651212e+00 0.0000000000e+00 0.0000e+00 1.0000e+00
<mgrwt>
<rscale>  0 0.12500062E+03</rscale>
<asrwt>0</asrwt>
<pdfrwt beam="1">  1       21 0.21430888E+00 0.12500062E+03</pdfrwt>
<pdfrwt beam="2">  1       21 0.11392111E-02 0.12500062E+03</pdfrwt>
<totfact> 0.34375877E+05</totfact>
</mgrwt>
</event>
<event>
 9      1 +9.5563000e+06 1.24998400e+02 7.81860800e-03 1.23507200e-01
       21 -1    0    0  502  501 +0.0000000000e+00 +0.0000000000e+00 +1.5576887601e+01 1.5576887601e+01 0.0000000000e+00 0.0000e+00 1.0000e+00
       21 -1    0    0  501  502 -0.0000000000e+00 -0.0000000000e+00 -2.5076580625e+02 2.5076580625e+02 0.0000000000e+00 0.0000e+00 1.0000e+00
       25  2    1    2    0    0 -3.5527136788e-15 +0.0000000000e+00 -2.3518891865e+02 2.6634269385e+02 1.2499841244e+02 0.0000e+00 0.0000e+00
  9000006  2    3    3    0    0 +1.9451967070e+01 +4.1029737408e+01 -1.5090079235e+02 1.6258187943e+02 4.0000000121e+01 0.0000e+00 0.0000e+00
  9000006  2    3    3    0    0 -1.9451967070e+01 -4.1029737408e+01 -8.4288126298e+01 1.0376081443e+02 4.0000000021e+01 0.0000e+00 0.0000e+00
      -11  1    4    4    0    0 +7.8877291400e+00 +4.2525585603e+01 -8.2058583943e+01 9.2759112224e+01 0.0000000000e+00 0.0000e+00 1.0000e+00
       13  1    4    4    0    0 +1.1564237930e+01 -1.4958481948e+00 -6.8842208411e+01 6.9822767201e+01 0.0000000000e+00 0.0000e+00 1.0000e+00
      -11  1    5    5    0    0 -6.9178825893e+00 -4.3009403921e+01 -4.5683198353e+01 6.3123850777e+01 0.0000000000e+00 0.0000e+00 1.0000e+00
       13  1    5    5    0    0 -1.2534084480e+01 +1.9796665133e+00 -3.8604927945e+01 4.0636963653e+01 0.0000000000e+00 0.0000e+00 1.0000e+00
<mgrwt>
<rscale>  0 0.12499841E+03</rscale>
<asrwt>0</asrwt>
<pdfrwt beam="1">  1       21 0.38942219E-02 0.12499841E+03</pdfrwt>
<pdfrwt beam="2">  1       21 0.62691452E-01 0.12499841E+03</pdfrwt>
<totfact> 0.96909426E+05</totfact>
</mgrwt>
</event>
<event>
 9      1 +9.5563000e+06 1.25001200e+02 7.81860800e-03 1.23506700e-01
       21 -1    0    0  502  501 +0.0000000000e+00 +0.0000000000e+00 +9.8498946093e+00 9.8498946093e+00 0.0000000000e+00 0.0000e+00 -1.0000e+00
       21 -1    0    0  501  502 -0.0000000000e+00 -0.0000000000e+00 -3.9658521092e+02 3.9658521092e+02 0.0000000000e+00 0.0000e+00 -1.0000e+00
       25  2    1    2    0    0 +0.0000000000e+00 -8.8817841970e-16 -3.8673531631e+02 4.0643510553e+02 1.2500116049e+02 0.0000e+00 0.0000e+00
  9000006  2    3    3    0    0 -4.7079959811e+01 -5.2918828809e+00 -1.6780788323e+02 1.7889665254e+02 3.9999999710e+01 0.0000e+00 0.0000e+00
  9000006  2    3    3    0    0 +4.7079959811e+01 +5.2918828809e+00 -2.1892743308e+02 2.2753845299e+02 3.9999999897e+01 0.0000e+00 0.0000e+00
      -11  1    5    5    0    0 +8.6092462421e+00 -1.5874296296e+01 -6.0299480659e+01 6.2945530195e+01 0.0000000000e+00 0.0000e+00 1.0000e+00
       13  1    4    4    0    0 -1.0905633798e+01 +9.0366498538e-01 -1.0919180958e+02 1.0973878411e+02 0.0000000000e+00 0.0000e+00 1.0000e+00
      -11  1    4    4    0    0 -3.6174326013e+01 -6.1955478663e+00 -5.8616073649e+01 6.9157868431e+01 0.0000000000e+00 0.0000e+00 1.0000e+00
       13  1    5    5    0    0 +3.8470713569e+01 +2.1166179177e+01 -1.5862795242e+02 1.6459292279e+02 0.0000000000e+00 0.0000e+00 1.0000e+00
<mgrwt>
<rscale>  0 0.12500116E+03</rscale>
<asrwt>0</asrwt>
<pdfrwt beam="1">  1       21 0.24624738E-02 0.12500116E+03</pdfrwt>
<pdfrwt beam="2">  1       21 0.99146299E-01 0.12500116E+03</pdfrwt>
<totfact> 0.74025411E+05</totfact>
</mgrwt>
</event>
<event>
 9      1 +9.5563000e+06 1.24988100e+02 7.81860800e-03 1.23508800e-01
       21 -1    0    0  502  501 +0.0000000000e+00 +0.0000000000e+00 +6.0249022287e+01 6.0249022287e+01 0.0000000000e+00 0.0000e+00 1.0000e+00
       21 -1    0    0  501  502 -0.0000000000e+00 -0.0000000000e+00 -6.4822758377e+01 6.4822758377e+01 0.0000000000e+00 0.0000e+00 1.0000e+00
       25  2    1    2    0    0 +0.0000000000e+00 +0.0000000000e+00 -4.5737360909e+00 1.2507178066e+02 1.2498812446e+02 0.0000e+00 0.0000e+00
  9000006  2    3    3    0    0 -4.1104905533e+01 +1.9156512307e+01 -1.8074709117e+01 6.3113234202e+01 3.9999999989e+01 0.0000e+00 0.0000e+00
  9000006  2    3    3    0    0 +4.1104905533e+01 -1.9156512307e+01 +1.3500973026e+01 6.1958546462e+01 3.9999999804e+01 0.0000e+00 0.0000e+00
      -11  1    4    4    0    0 +3.7427807148e+00 +6.8371192933e+00 +6.8232993525e+00 1.0359151595e+01 0.0000000000e+00 0.0000e+00 1.0000e+00
       13  1    4    4    0    0 -4.4847686248e+01 +1.2319393014e+01 -2.4898008470e+01 5.2754082608e+01 0.0000000000e+00 0.0000e+00 1.0000e+00
      -11  1    5    5    0    0 +2.7894346972e+01 -3.1562023940e+00 -1.0734047339e+01 3.0054550052e+01 0.0000000000e+00 0.0000e+00 1.0000e+00
       13  1    5    5    0    0 +1.3210558561e+01 -1.6000309913e+01 +2.4235020365e+01 3.1903996410e+01 0.0000000000e+00 0.0000e+00 1.0000e+00
<mgrwt>
<rscale>  0 0.12498812E+03</rscale>
<asrwt>0</asrwt>
<pdfrwt beam="1">  1       21 0.15062256E-01 0.12498812E+03</pdfrwt>
<pdfrwt beam="2">  1       21 0.16205690E-01 0.12498812E+03</pdfrwt>
<totfact> 0.13228605E+06</totfact>
</mgrwt>
</event>
<event>
 9      1 +9.5563000e+06 1.24995600e+02 7.81860800e-03 1.23507600e-01
       21 -1    0    0  502  501 +0.0000000000e+00 +0.0000000000e+00 +9.4822162316e+01 9.4822162316e+01 0.0000000000e+00 0.0000e+00 1.0000e+00
       21 -1    0    0  501  502 -0.0000000000e+00 -0.0000000000e+00 -4.1192632911e+01 4.1192632911e+01 0.0000000000e+00 0.0000e+00 1.0000e+00
       25  2    1    2    0    0 +0.0000000000e+00 -1.7763568394e-15 +5.3629529406e+01 1.3601479523e+02 1.2499559231e+02 0.0000e+00 0.0000e+00
  9000006  2    3    3    0    0 -2.9371455648e+01 -1.3851737333e+01 -1.1679255090e+01 5.2829517961e+01 3.9999999181e+01 0.0000e+00 0.0000e+00
  9000006  2    3    3    0    0 +2.9371455648e+01 +1.3851737333e+01 +6.5308784496e+01 8.3185277266e+01 3.9999999844e+01 0.0000e+00 0.0000e+00
      -11  1    4    4    0    0 -2.6516985502e+01 -2.0871568988e+00 -2.3804571708e+01 3.5695439180e+01 0.0000000000e+00 0.0000e+00 1.0000e+00
       13  1    4    4    0    0 -2.8544701452e+00 -1.1764580434e+01 +1.2125316617e+01 1.7134078781e+01 0.0000000000e+00 0.0000e+00 1.0000e+00
      -11  1    5    5    0    0 +2.1579611113e+01 -7.1520691322e+00 +1.2782433769e+01 2.6081072097e+01 0.0000000000e+00 0.0000e+00 1.0000e+00
       13  1    5    5    0    0 +7.7918445340e+00 +2.1003806465e+01 +5.2526350727e+01 5.7104205169e+01 0.0000000000e+00 0.0000e+00 1.0000e+00
<mgrwt>
<rscale>  0 0.12499559E+03</rscale>
<asrwt>0</asrwt>
<pdfrwt beam="1">  1       21 0.23705540E-01 0.12499559E+03</pdfrwt>
<pdfrwt beam="2">  1       21 0.10298158E-01 0.12499559E+03</pdfrwt>
<totfact> 0.12885491E+06</totfact>
</mgrwt>
</event>
<event>
 9      1 +9.5563000e+06 1.24999800e+02 7.81860800e-03 1.23507000e-01
       21 -1    0    0  502  501 +0.0000000000e+00 +0.0000000000e+00 +5.1759983271e+02 5.1759983271e+02 0.0000000000e+00 0.0000e+00 1.0000e+00
       21 -1    0    0  501  502 -0.0000000000e+00 -0.0000000000e+00 -7.5468307009e+00 7.5468307009e+00 0.0000000000e+00 0.0000e+00 1.0000e+00
       25  2    1    2    0    0 -1.7763568394e-15 +0.0000000000e+00 +5.1005300200e+02 5.2514666341e+02 1.2499981293e+02 0.0000e+00 0.0000e+00
  9000006  2    3    3    0    0 +9.0987358787e+00 -2.4332813865e+00 +5.7190172116e+01 7.0423175387e+01 3.9999999900e+01 0.0000e+00 0.0000e+00
  9000006  2    3    3    0    0 -9.0987358787e+00 +2.4332813865e+00 +4.5286282989e+02 4.5472348802e+02 4.0000000112e+01 0.0000e+00 0.0000e+00
      -11  1    5    5    0    0 -1.4631669723e+01 -1.5166753273e+01 +3.0247101563e+02 3.0320427349e+02 0.0000000000e+00 0.0000e+00 1.0000e+00
       13  1    4    4    0    0 -1.3000883819e+01 -4.6968701759e+00 +4.0037457729e+01 4.2356600323e+01 0.0000000000e+00 0.0000e+00 1.0000e+00
      -11  1    4    4    0    0 +2.2099619698e+01 +2.2635887894e+00 +1.7152714387e+01 2.8066575064e+01 0.0000000000e+00 0.0000e+00 1.0000e+00
       13  1    5    5    0    0 +5.5329338440e+00 +1.7600034659e+01 +1.5039181425e+02 1.5151921453e+02 0.0000000000e+00 0.0000e+00 1.0000e+00
<mgrwt>
<rscale>  0 0.12499981E+03</rscale>
<asrwt>0</asrwt>
<pdfrwt beam="1">  1       21 0.12939984E+00 0.12499981E+03</pdfrwt>
<pdfrwt beam="2">  1       21 0.18867094E-02 0.12499981E+03</pdfrwt>
<totfact> 0.60005544E+05</totfact>
</mgrwt>
</event>
<event>
 9      1 +9.5563000e+06 1.25000100e+02 7.81860800e-03 1.23506900e-01
       21 -1    0    0  502  501 +0.0000000000e+00 +0.0000000000e+00 +1.3787113322e+02 1.3787113322e+02 0.0000000000e+00 0.0000e+00 -1.0000e+00
       21 -1    0    0  501  502 -0.0000000000e+00 -0.0000000000e+00 -2.8332672408e+01 2.8332672408e+01 0.0000000000e+00 0.0000e+00 -1.0000e+00
       25  2    1    2    0    0 +0.0000000000e+00 +3.5527136788e-15 +1.0953846081e+02 1.6620380563e+02 1.2500012243e+02 0.0000e+00 0.0000e+00
  9000006  2    3    3    0    0 +2.0451936496e+01 -2.9870155041e+01 +9.6726347240e+01 1.1075420582e+02 3.9999999838e+01 0.0000e+00 0.0000e+00
  9000006  2    3    3    0    0 -2.0451936496e+01 +2.9870155041e+01 +1.2812113575e+01 5.5449599814e+01 3.9999999958e+01 0.0000e+00 0.0000e+00
      -11  1    5    5    0    0 -1.0161561809e+01 +1.2392122749e+01 +2.6508279586e+01 3.0975973451e+01 0.0000000000e+00 0.0000e+00 1.0000e+00
       13  1    4    4    0    0 -3.8864375264e+00 -1.6371752241e+01 +9.7805655337e+00 1.9462736967e+01 0.0000000000e+00 0.0000e+00 1.0000e+00
      -11  1    4    4    0    0 +2.4338374022e+01 -1.3498402800e+01 +8.6945781706e+01 9.1291468849e+01 0.0000000000e+00 0.0000e+00 1.0000e+00
       13  1    5    5    0    0 -1.0290374687e+01 +1.7478032292e+01 -1.3696166010e+01 2.4473626363e+01 0.0000000000e+00 0.0000e+00 1.0000e+00
<mgrwt>
<rscale>  0 0.12500012E+03</rscale>
<asrwt>0</asrwt>
<pdfrwt beam="1">  1       21 0.34467781E-01 0.12500012E+03</pdfrwt>
<pdfrwt beam="2">  1       21 0.70831685E-02 0.12500012E+03</pdfrwt>
<totfact> 0.12013416E+06</totfact>
</mgrwt>
</event>
<event>
 9      1 +9.5563000e+06 1.25000700e+02 7.81860800e-03 1.23506800e-01
       21 -1    0    0  502  501 +0.0000000000e+00 +0.0000000000e+00 +9.6422442409e+02 9.6422442409e+02 0.0000000000e+00 0.0000e+00 1.0000e+00
       21 -1    0    0  501  502 -0.0000000000e+00 -0.0000000000e+00 -4.0512316700e+00 4.0512316700e+00 0.0000000000e+00 0.0000e+00 1.0000e+00
       25  2    1    2    0    0 +0.0000000000e+00 +0.0000000000e+00 +9.6017319242e+02 9.6827565576e+02 1.2500074438e+02 0.0000e+00 0.0000e+00
  9000006  2    3    3    0    0 +4.3906232200e+01 -1.7550855915e+01 +4.1504342064e+02 4.1963892909e+02 4.0000000266e+01 0.0000e+00 0.0000e+00
  9000006  2    3    3    0    0 -4.3906232200e+01 +1.7550855915e+01 +5.4512977178e+02 5.4863672667e+02 4.0000000022e+01 0.0000e+00 0.0000e+00
      -11  1    4    4    0    0 -4.4040798590e+00 +5.9727777784e-01 +6.6540899039e+00 8.0018480739e+00 0.0000000000e+00 0.0000e+00 1.0000e+00
       13  1    4    4    0    0 +4.8310312059e+01 -1.8148133693e+01 +4.0838933074e+02 4.1163708102e+02 0.0000000000e+00 0.0000e+00 1.0000e+00
      -11  1    5    5    0    0 -4.0871364958e+01 +1.0867420317e+01 +2.6036536501e+02 2.6377773332e+02 0.0000000000e+00 0.0000e+00 1.0000e+00
       13  1    5    5    0    0 -3.0348672414e+00 +6.6834355978e+00 +2.8476440677e+02 2.8485899335e+02 0.0000000000e+00 0.0000e+00 1.0000e+00
<mgrwt>
<rscale>  0 0.12500074E+03</rscale>
<asrwt>0</asrwt>
<pdfrwt beam="1">  1       21 0.24105532E+00 0.12500074E+03</pdfrwt>
<pdfrwt beam="2">  1       21 0.10128112E-02 0.12500074E+03</pdfrwt>
<totfact> 0.28757858E+05</totfact>
</mgrwt>
</event>
<event>
 9      1 +9.5563000e+06 1.25029700e+02 7.81860800e-03 1.23502300e-01
       21 -1    0    0  502  501 +0.0000000000e+00 +0.0000000000e+00 +1.0095486356e+01 1.0095486356e+01 0.0000000000e+00 0.0000e+00 -1.0000e+00
       21 -1    0    0  501  502 -0.0000000000e+00 -0.0000000000e+00 -3.8711424208e+02 3.8711424208e+02 0.0000000000e+00 0.0000e+00 -1.0000e+00
       25  2    1    2    0    0 +0.0000000000e+00 +0.0000000000e+00 -3.7701875572e+02 3.9720972844e+02 1.2502970126e+02 0.0000e+00 0.0000e+00
  9000006  2    3    3    0    0 +3.8364850574e+01 +2.4384080939e+01 -1.3912264302e+02 1.5172855685e+02 4.0000000010e+01 0.0000e+00 0.0000e+00
  9000006  2    3    3    0    0 -3.8364850574e+01 -2.4384080939e+01 -2.3789611271e+02 2.4548117159e+02 3.9999999991e+01 0.0000e+00 0.0000e+00
      -11  1    5    5    0    0 -3.9830805102e+01 -3.0703772404e+01 -2.2907952332e+02 2.3453494980e+02 0.0000000000e+00 0.0000e+00 1.0000e+00
       13  1    4    4    0    0 -4.8334528074e+00 +1.3822640022e+01 -5.0407927605e+01 5.2491778486e+01 0.0000000000e+00 0.0000e+00 1.0000e+00
      -11  1    4    4    0    0 +4.3198303382e+01 +1.0561440917e+01 -8.8714715412e+01 9.9236778363e+01 0.0000000000e+00 0.0000e+00 1.0000e+00
       13  1    5    5    0    0 +1.4659545278e+00 +6.3196914646e+00 -8.8165893867e+00 1.0946221782e+01 0.0000000000e+00 0.0000e+00 1.0000e+00
<mgrwt>
<rscale>  0 0.12502970E+03</rscale>
<asrwt>0</asrwt>
<pdfrwt beam="1">  1       21 0.25238716E-02 0.12502970E+03</pdfrwt>
<pdfrwt beam="2">  1       21 0.96778562E-01 0.12502970E+03</pdfrwt>
<totfact> 0.75230521E+05</totfact>
</mgrwt>
</event>
<event>
 9      1 +9.5563000e+06 1.25000900e+02 7.81860800e-03 1.23506800e-01
       21 -1    0    0  502  501 +0.0000000000e+00 +0.0000000000e+00 +4.7444608579e+01 4.7444608579e+01 0.0000000000e+00 0.0000e+00 1.0000e+00
       21 -1    0    0  501  502 -0.0000000000e+00 -0.0000000000e+00 -8.2334056024e+01 8.2334056024e+01 0.0000000000e+00 0.0000e+00 1.0000e+00
       25  2    1    2    0    0 -1.7763568394e-15 +0.0000000000e+00 -3.4889447445e+01 1.2977866460e+02 1.2500091297e+02 0.0000e+00 0.0000e+00
  9000006  2    3    3    0    0 +7.7741469713e+00 +4.6317857708e+01 -7.0352494040e+00 6.2090869206e+01 4.0000000010e+01 0.0000e+00 0.0000e+00
  9000006  2    3    3    0    0 -7.7741469713e+00 -4.6317857708e+01 -2.7854198041e+01 6.7687795397e+01 3.9999999917e+01 0.0000e+00 0.0000e+00
      -11  1    5    5    0    0 -1.4574736732e+01 -1.8926617861e+01 -3.1169877265e+01 3.9270867869e+01 0.0000000000e+00 0.0000e+00 1.0000e+00
       13  1    4    4    0    0 +1.7872334722e+01 +3.5860942388e+01 +8.3453145299e+00 4.0927641173e+01 0.0000000000e+00 0.0000e+00 1.0000e+00
      -11  1    4    4    0    0 -1.0098187751e+01 +1.0456915320e+01 -1.5380563934e+01 2.1163228033e+01 0.0000000000e+00 0.0000e+00 1.0000e+00
       13  1    5    5    0    0 +6.8005897603e+00 -2.7391239847e+01 +3.3156792238e+00 2.8416927528e+01 0.0000000000e+00 0.0000e+00 1.0000e+00
<mgrwt>
<rscale>  0 0.12500091E+03</rscale>
<asrwt>0</asrwt>
<pdfrwt beam="1">  1       21 0.11861152E-01 0.12500091E+03</pdfrwt>
<pdfrwt beam="2">  1       21 0.20583514E-01 0.12500091E+03</pdfrwt>
<totfact> 0.13076288E+06</totfact>
</mgrwt>
</event>
<event>
 9      1 +9.5563000e+06 1.25003800e+02 7.81860800e-03 1.23506300e-01
       21 -1    0    0  502  501 +0.0000000000e+00 +0.0000000000e+00 +1.0962644387e+01 1.0962644387e+01 0.0000000000e+00 0.0000e+00 -1.0000e+00
       21 -1    0    0  501  502 -0.0000000000e+00 -0.0000000000e+00 -3.5634521187e+02 3.5634521187e+02 0.0000000000e+00 0.0000e+00 -1.0000e+00
       25  2    1    2    0    0 +0.0000000000e+00 +0.0000000000e+00 -3.4538256749e+02 3.6730785626e+02 1.2500377333e+02 0.0000e+00 0.0000e+00
  9000006  2    3    3    0    0 -2.3380912572e+00 -4.3731258149e+01 -1.1476757090e+02 1.2918778944e+02 3.9999999997e+01 0.0000e+00 0.0000e+00
  9000006  2    3    3    0    0 +2.3380912572e+00 +4.3731258149e+01 -2.3061499658e+02 2.3812006682e+02 3.9999999536e+01 0.0000e+00 0.0000e+00
      -11  1    5    5    0    0 -7.3924620311e+00 +4.7895613874e+01 -1.7996973598e+02 1.8638064329e+02 0.0000000000e+00 0.0000e+00 1.0000e+00
       13  1    4    4    0    0 +5.9986137333e+00 -3.3457119393e+01 -3.6761751505e+01 5.0067839762e+01 0.0000000000e+00 0.0000e+00 1.0000e+00
      -11  1    4    4    0    0 -8.3367049905e+00 -1.0274138757e+01 -7.8005819396e+01 7.9119949677e+01 0.0000000000e+00 0.0000e+00 1.0000e+00
       13  1    5    5    0    0 +9.7305532883e+00 -4.1643557251e+00 -5.0645260600e+01 5.1739423530e+01 0.0000000000e+00 0.0000e+00 1.0000e+00
<mgrwt>
<rscale>  0 0.12500377E+03</rscale>
<asrwt>0</asrwt>
<pdfrwt beam="1">  1       21 0.27406611E-02 0.12500377E+03</pdfrwt>
<pdfrwt beam="2">  1       21 0.89086302E-01 0.12500377E+03</pdfrwt>
<totfact> 0.79573038E+05</totfact>
</mgrwt>
</event>
<event>
 9      1 +9.5563000e+06 1.24997700e+02 7.81860800e-03 1.23507300e-01
       21 -1    0    0  502  501 +0.0000000000e+00 +0.0000000000e+00 +5.5466834548e+01 5.5466834548e+01 0.0000000000e+00 0.0000e+00 1.0000e+00
       21 -1    0    0  501  502 -0.0000000000e+00 -0.0000000000e+00 -7.0422340039e+01 7.0422340039e+01 0.0000000000e+00 0.0000e+00 1.0000e+00
       25  2    1    2    0    0 -2.6645352591e-15 +0.0000000000e+00 -1.4955505492e+01 1.2588917459e+02 1.2499766851e+02 0.0000e+00 0.0000e+00
  9000006  2    3    3    0    0 -6.2140666290e+00 -3.0058476164e+01 -4.4673227315e+01 6.7363371785e+01 4.0000000077e+01 0.0000e+00 0.0000e+00
  9000006  2    3    3    0    0 +6.2140666290e+00 +3.0058476164e+01 +2.9717721823e+01 5.8525802802e+01 3.9999999874e+01 0.0000e+00 0.0000e+00
      -11  1    4    4    0    0 -2.0132874134e+01 -3.0291036362e+01 -3.0115374930e+01 4.7220920279e+01 0.0000000000e+00 0.0000e+00 1.0000e+00
       13  1    4    4    0    0 +1.3918807505e+01 +2.3256019824e-01 -1.4557852385e+01 2.0142451506e+01 0.0000000000e+00 0.0000e+00 1.0000e+00
      -11  1    5    5    0    0 +3.4314072822e+00 -9.1562379447e+00 +9.7641680283e-01 9.8267308404e+00 0.0000000000e+00 0.0000e+00 1.0000e+00
       13  1    5    5    0    0 +2.7826593468e+00 +3.9214714108e+01 +2.8741305021e+01 4.8699071962e+01 0.0000000000e+00 0.0000e+00 1.0000e+00
<mgrwt>
<rscale>  0 0.12499767E+03</rscale>
<asrwt>0</asrwt>
<pdfrwt beam="1">  1       21 0.13866709E-01 0.12499767E+03</pdfrwt>
<pdfrwt beam="2">  1       21 0.17605585E-01 0.12499767E+03</pdfrwt>
<totfact> 0.13199885E+06</totfact>
</mgrwt>
</event>
<event>
 9      1 +9.5563000e+06 1.24996000e+02 7.81860800e-03 1.23507600e-01
       21 -1    0    0  502  501 +0.0000000000e+00 +0.0000000000e+00 +1.6119755127e+02 1.6119755127e+02 0.0000000000e+00 0.0000e+00 1.0000e+00
       21 -1    0    0  501  502 -0.0000000000e+00 -0.0000000000e+00 -2.4231138512e+01 2.4231138512e+01 0.0000000000e+00 0.0000e+00 1.0000e+00
       25  2    1    2    0    0 -1.7763568394e-15 +0.0000000000e+00 +1.3696641276e+02 1.8542868978e+02 1.2499600302e+02 0.0000e+00 0.0000e+00
  9000006  2    3    3    0    0 +6.2425280929e+00 +2.5281778416e+01 +1.2833672435e+02 1.3692498786e+02 4.0000000093e+01 0.0000e+00 0.0000e+00
  9000006  2    3    3    0    0 -6.2425280929e+00 -2.5281778416e+01 +8.6296884087e+00 4.8503701921e+01 4.0000001264e+01 0.0000e+00 0.0000e+00
      -11  1    4    4    0    0 +5.4463750201e+00 -6.9817838681e+00 +6.7675104607e+00 1.1144842066e+01 0.0000000000e+00 0.0000e+00 1.0000e+00
       13  1    4    4    0    0 +7.9615307285e-01 +3.2263562284e+01 +1.2156921389e+02 1.2578014579e+02 0.0000000000e+00 0.0000e+00 1.0000e+00
      -11  1    5    5    0    0 -1.8280410632e+01 -1.1441039567e+00 +1.1101312826e+01 2.1417785441e+01 0.0000000000e+00 0.0000e+00 1.0000e+00
       13  1    5    5    0    0 +1.2037882539e+01 -2.4137674459e+01 -2.4716244170e+00 2.7085916480e+01 0.0000000000e+00 0.0000e+00 1.0000e+00
<mgrwt>
<rscale>  0 0.12499600E+03</rscale>
<asrwt>0</asrwt>
<pdfrwt beam="1">  1       21 0.40299385E-01 0.12499600E+03</pdfrwt>
<pdfrwt beam="2">  1       21 0.60577851E-02 0.12499600E+03</pdfrwt>
<totfact> 0.11508244E+06</totfact>
</mgrwt>
</event>
<event>
 9      1 +9.5563000e+06 1.24998500e+02 7.81860800e-03 1.23507200e-01
       21 -1    0    0  502  501 +0.0000000000e+00 +0.0000000000e+00 +7.5308575155e+01 7.5308575155e+01 0.0000000000e+00 0.0000e+00 -1.0000e+00
       21 -1    0    0  501  502 -0.0000000000e+00 -0.0000000000e+00 -5.1868663307e+01 5.1868663307e+01 0.0000000000e+00 0.0000e+00 -1.0000e+00
       25  2    1    2    0    0 +7.1054273576e-15 -3.5527136788e-15 +2.3439911848e+01 1.2717723846e+02 1.2499848205e+02 0.0000e+00 0.0000e+00
  9000006  2    3    3    0    0 -4.2485255476e+01 +2.1221587273e+01 +4.4681360816e+00 6.2252043177e+01 3.9999999255e+01 0.0000e+00 0.0000e+00
  9000006  2    3    3    0    0 +4.2485255476e+01 -2.1221587273e+01 +1.8971775766e+01 6.4925195285e+01 4.0000000098e+01 0.0000e+00 0.0000e+00
      -11  1    5    5    0    0 +4.0586068622e+01 -1.8341395688e+01 +2.9781860496e+01 5.3577933671e+01 0.0000000000e+00 0.0000e+00 1.0000e+00
       13  1    4    4    0    0 -7.0667133234e+00 -7.6661389549e+00 -9.8633756241e+00 1.4352501607e+01 0.0000000000e+00 0.0000e+00 1.0000e+00
      -11  1    4    4    0    0 -3.5418542152e+01 +2.8887726228e+01 +1.4331511706e+01 4.7899541570e+01 0.0000000000e+00 0.0000e+00 1.0000e+00
       13  1    5    5    0    0 +1.8991868541e+00 -2.8801915858e+00 -1.0810084729e+01 1.1347261614e+01 0.0000000000e+00 0.0000e+00 1.0000e+00
<mgrwt>
<rscale>  0 0.12499848E+03</rscale>
<asrwt>0</asrwt>
<pdfrwt beam="1">  1       21 0.18827144E-01 0.12499848E+03</pdfrwt>
<pdfrwt beam="2">  1       21 0.12967166E-01 0.12499848E+03</pdfrwt>
<totfact> 0.13159612E+06</totfact>
</mgrwt>
</event>
<event>
 9      1 +9.5563000e+06 1.24985800e+02 7.81860800e-03 1.23509100e-01
       21 -1    0    0  502  501 +0.0000000000e+00 +0.0000000000e+00 +4.2610898623e+01 4.2610898623e+01 0.0000000000e+00 0.0000e+00 -1.0000e+00
       21 -1    0    0  501  502 -0.0000000000e+00 -0.0000000000e+00 -9.1651757112e+01 9.1651757112e+01 0.0000000000e+00 0.0000e+00 -1.0000e+00
       25  2    1    2    0    0 +0.0000000000e+00 +0.0000000000e+00 -4.9040858490e+01 1.3426265574e+02 1.2498581889e+02 0.0000e+00 0.0000e+00
  9000006  2    3    3    0    0 +8.5496496636e+00 -1.7884276755e+01 +2.2456661397e+01 4.9972447444e+01 3.9999999976e+01 0.0000e+00 0.0000e+00
  9000006  2    3    3    0    0 -8.5496496636e+00 +1.7884276755e+01 -7.1497519886e+01 8.4290208291e+01 3.9999999992e+01 0.0000e+00 0.0000e+00
      -11  1    4    4    0    0 +2.3810604424e-01 +3.7993772059e+00 +2.6178686200e+01 2.6454027535e+01 0.0000000000e+00 0.0000e+00 1.0000e+00
       13  1    4    4    0    0 +8.3115436194e+00 -2.1683653961e+01 -3.7220248034e+00 2.3518419910e+01 0.0000000000e+00 0.0000e+00 1.0000e+00
      -11  1    5    5    0    0 +1.9426840909e+00 -8.1159951644e+00 -9.7915470574e-01 8.4025081329e+00 0.0000000000e+00 0.0000e+00 1.0000e+00
       13  1    5    5    0    0 -1.0492333754e+01 +2.6000271919e+01 -7.0518365181e+01 7.5887700158e+01 0.0000000000e+00 0.0000e+00 1.0000e+00
<mgrwt>
<rscale>  0 0.12498582E+03</rscale>
<asrwt>0</asrwt>
<pdfrwt beam="1">  1       21 0.10652725E-01 0.12498582E+03</pdfrwt>
<pdfrwt beam="2">  1       21 0.22912939E-01 0.12498582E+03</pdfrwt>
<totfact> 0.12942318E+06</totfact>
</mgrwt>
</event>
<event>
 9      1 +9.5563000e+06 1.24995400e+02 7.81860800e-03 1.23507600e-01
       21 -1    0    0  502  501 +0.0000000000e+00 +0.0000000000e+00 +2.6667217002e+01 2.6667217002e+01 0.0000000000e+00 0.0000e+00 1.0000e+00
       21 -1    0    0  501  502 -0.0000000000e+00 -0.0000000000e+00 -1.4647065535e+02 1.4647065535e+02 0.0000000000e+00 0.0000e+00 1.0000e+00
       25  2    1    2    0    0 -1.7763568394e-15 +0.0000000000e+00 -1.1980343835e+02 1.7313787236e+02 1.2499543593e+02 0.0000e+00 0.0000e+00
  9000006  2    3    3    0    0 -1.3621979841e+01 -3.5259098957e+01 -1.0092664613e+02 1.1495629721e+02 3.9999999689e+01 0.0000e+00 0.0000e+00
  9000006  2    3    3    0    0 +1.3621979841e+01 +3.5259098957e+01 -1.8876792222e+01 5.8181575146e+01 4.0000000099e+01 0.0000e+00 0.0000e+00
      -11  1    4    4    0    0 -7.0181398159e+00 -4.3207645010e+01 -8.8950463840e+01 9.9137984099e+01 0.0000000000e+00 0.0000e+00 1.0000e+00
       13  1    4    4    0    0 -6.6038400253e+00 +7.9485460531e+00 -1.1976182290e+01 1.5818313111e+01 0.0000000000e+00 0.0000e+00 1.0000e+00
      -11  1    5    5    0    0 +2.2054437190e+01 +3.4335809912e+01 -2.4874915042e+01 4.7792336629e+01 0.0000000000e+00 0.0000e+00 1.0000e+00
       13  1    5    5    0    0 -8.4324573487e+00 +9.2328904435e-01 +5.9981228207e+00 1.0389238517e+01 0.0000000000e+00 0.0000e+00 1.0000e+00
<mgrwt>
<rscale>  0 0.12499544E+03</rscale>
<asrwt>0</asrwt>
<pdfrwt beam="1">  1       21 0.66668044E-02 0.12499544E+03</pdfrwt>
<pdfrwt beam="2">  1       21 0.36617663E-01 0.12499544E+03</pdfrwt>
<totfact> 0.11828300E+06</totfact>
</mgrwt>
</event>
<event>
 9      1 +9.5563000e+06 1.24996600e+02 7.81860800e-03 1.23507500e-01
       21 -1    0    0  502  501 +0.0000000000e+00 +0.0000000000e+00 +3.3713695249e+01 3.3713695249e+01 0.0000000000e+00 0.0000e+00 -1.0000e+00
       21 -1    0    0  501  502 -0.0000000000e+00 -0.0000000000e+00 -1.1585906985e+02 1.1585906985e+02 0.0000000000e+00 0.0000e+00 -1.0000e+00
       25  2    1    2    0    0 +0.0000000000e+00 +0.0000000000e+00 -8.2145374597e+01 1.4957276510e+02 1.2499659792e+02 0.0000e+00 0.0000e+00
  9000006  2    3    3    0    0 +3.9237815735e+01 -2.2210721432e+01 -6.0848172616e+01 8.5647080703e+01 3.9999999901e+01 0.0000e+00 0.0000e+00
  9000006  2    3    3    0    0 -3.9237815735e+01 +2.2210721432e+01 -2.1297201981e+01 6.3925684393e+01 3.9999999784e+01 0.0000e+00 0.0000e+00
      -11  1    5    5    0    0 -3.4277477531e+01 +3.2967803836e+01 -2.1224601323e+01 5.2079797013e+01 0.0000000000e+00 0.0000e+00 1.0000e+00
       13  1    4    4    0    0 +4.7029798227e+01 -1.9424314306e+01 -5.7332962832e+01 7.6656210020e+01 0.0000000000e+00 0.0000e+00 1.0000e+00
      -11  1    4    4    0    0 -7.7919824916e+00 -2.7864071257e+00 -3.5152097844e+00 8.9908706835e+00 0.0000000000e+00 0.0000e+00 1.0000e+00
       13  1    5    5    0    0 -4.9603382044e+00 -1.0757082404e+01 -7.2600657127e-02 1.1845887379e+01 0.0000000000e+00 0.0000e+00 1.0000e+00
<mgrwt>
<rscale>  0 0.12499660E+03</rscale>
<asrwt>0</asrwt>
<pdfrwt beam="1">  1       21 0.84284239E-02 0.12499660E+03</pdfrwt>
<pdfrwt beam="2">  1       21 0.28964767E-01 0.12499660E+03</pdfrwt>
<totfact> 0.12482828E+06</totfact>
</mgrwt>
</event>
<event>
 9      1 +9.5563000e+06 1.25003400e+02 7.81860800e-03 1.23506400e-01
       21 -1    0    0  502  501 +0.0000000000e+00 +0.0000000000e+00 +3.9441051697e+02 3.9441051697e+02 0.0000000000e+00 0.0000e+00 1.0000e+00
       21 -1    0    0  501  502 -0.0000000000e+00 -0.0000000000e+00 -9.9045525998e+00 9.9045525998e+00 0.0000000000e+00 0.0000e+00 1.0000e+00
       25  2    1    2    0    0 +3.5527136788e-15 +3.5527136788e-15 +3.8450596437e+02 4.0431506957e+02 1.2500335533e+02 0.0000e+00 0.0000e+00
  9000006  2    3    3    0    0 +1.6598634791e+01 -2.1826835017e+01 +3.1977888656e+02 3.2343540574e+02 3.9999999923e+01 0.0000e+00 0.0000e+00
  9000006  2    3    3    0    0 -1.6598634791e+01 +2.1826835017e+01 +6.4727077810e+01 8.0879663828e+01 4.0000000192e+01 0.0000e+00 0.0000e+00
      -11  1    5    5    0    0 -1.2043609413e-01 +2.9939866957e+01 +3.6589116839e+01 4.7277622712e+01 0.0000000000e+00 0.0000e+00 1.0000e+00
       13  1    4    4    0    0 +2.4324951932e+01 -1.1623120765e+01 +2.8673215037e+02 2.8799674699e+02 0.0000000000e+00 0.0000e+00 1.0000e+00
      -11  1    4    4    0    0 -7.7263171408e+00 -1.0203714252e+01 +3.3046736196e+01 3.5438658755e+01 0.0000000000e+00 0.0000e+00 1.0000e+00
       13  1    5    5    0    0 -1.6478198697e+01 -8.1130319399e+00 +2.8137960972e+01 3.3602041117e+01 0.0000000000e+00 0.0000e+00 1.0000e+00
<mgrwt>
<rscale>  0 0.12500336E+03</rscale>
<asrwt>0</asrwt>
<pdfrwt beam="1">  1       21 0.98602577E-01 0.12500336E+03</pdfrwt>
<pdfrwt beam="2">  1       21 0.24761395E-02 0.12500336E+03</pdfrwt>
<totfact> 0.74308369E+05</totfact>
</mgrwt>
</event>
<event>
 9      1 +9.5563000e+06 1.25000100e+02 7.81860800e-03 1.23506900e-01
       21 -1    0    0  502  501 +0.0000000000e+00 +0.0000000000e+00 +1.6526961122e+02 1.6526961122e+02 0.0000000000e+00 0.0000e+00 -1.0000e+00
       21 -1    0    0  501  502 -0.0000000000e+00 -0.0000000000e+00 -2.3635666568e+01 2.3635666568e+01 0.0000000000e+00 0.0000e+00 -1.0000e+00
       25  2    1    2    0    0 +0.0000000000e+00 +3.5527136788e-15 +1.4163394465e+02 1.8890527779e+02 1.2500011879e+02 0.0000e+00 0.0000e+00
  9000006  2    3    3    0    0 +4.5776099269e+01 +1.4507257186e+01 +7.1705449309e+01 9.5118784937e+01 4.0000000147e+01 0.0000e+00 0.0000e+00
  9000006  2    3    3    0    0 -4.5776099269e+01 -1.4507257186e+01 +6.9928495342e+01 9.3786492851e+01 4.0000000065e+01 0.0000e+00 0.0000e+00
      -11  1    4    4    0    0 +1.9862068216e+01 -9.9086946084e+00 +4.6405659268e+01 5.1440929179e+01 0.0000000000e+00 0.0000e+00 1.0000e+00
       13  1    4    4    0    0 +2.5914031053e+01 +2.4415951795e+01 +2.5299790041e+01 4.3677855758e+01 0.0000000000e+00 0.0000e+00 1.0000e+00
      -11  1    5    5    0    0 -3.5031454907e+01 -2.6448725456e+01 +6.1747512301e+01 7.5759442887e+01 0.0000000000e+00 0.0000e+00 1.0000e+00
       13  1    5    5    0    0 -1.0744644362e+01 +1.1941468270e+01 +8.1809830409e+00 1.8027049964e+01 0.0000000000e+00 0.0000e+00 1.0000e+00
<mgrwt>
<rscale>  0 0.12500012E+03</rscale>
<asrwt>0</asrwt>
<pdfrwt beam="1">  1       21 0.41317399E-01 0.12500012E+03</pdfrwt>
<pdfrwt beam="2">  1       21 0.59089171E-02 0.12500012E+03</pdfrwt>
<totfact> 0.11418527E+06</totfact>
</mgrwt>
</event>
<event>
 9      1 +9.5563000e+06 1.25000000e+02 7.81860800e-03 1.23506900e-01
       21 -1    0    0  502  501 +0.0000000000e+00 +0.0000000000e+00 +1.0708409968e+02 1.0708409968e+02 0.0000000000e+00 0.0000e+00 1.0000e+00
       21 -1    0    0  501  502 -0.0000000000e+00 -0.0000000000e+00 -3.6478338359e+01 3.6478338359e+01 0.0000000000e+00 0.0000e+00 1.0000e+00
       25  2    1    2    0    0 +0.0000000000e+00 +0.0000000000e+00 +7.0605761323e+01 1.4356243804e+02 1.2500000034e+02 0.0000e+00 0.0000e+00
  9000006  2    3    3    0    0 -9.4117050425e+00 +2.1867566479e+01 -1.2597664478e+01 4.8223145396e+01 3.9999999326e+01 0.0000e+00 0.0000e+00
  9000006  2    3    3    0    0 +9.4117050425e+00 -2.1867566479e+01 +8.3203425800e+01 9.5339292644e+01 4.0000000017e+01 0.0000e+00 0.0000e+00
      -11  1    5    5    0    0 +1.2662755754e+01 +3.8837634767e+00 +7.3060581621e+00 1.5126383834e+01 0.0000000000e+00 0.0000e+00 1.0000e+00
       13  1    4    4    0    0 -6.7176638490e+00 +2.9844183732e+01 -2.0380061321e+01 3.6757981578e+01 0.0000000000e+00 0.0000e+00 1.0000e+00
      -11  1    4    4    0    0 -2.6940411934e+00 -7.9766172528e+00 +7.7823968435e+00 1.1465163818e+01 0.0000000000e+00 0.0000e+00 1.0000e+00
       13  1    5    5    0    0 -3.2510507119e+00 -2.5751329956e+01 +7.5897367638e+01 8.0212908809e+01 0.0000000000e+00 0.0000e+00 1.0000e+00
<mgrwt>
<rscale>  0 0.12500000E+03</rscale>
<asrwt>0</asrwt>
<pdfrwt beam="1">  1       21 0.26771024E-01 0.12500000E+03</pdfrwt>
<pdfrwt beam="2">  1       21 0.91195848E-02 0.12500000E+03</pdfrwt>
<totfact> 0.12658255E+06</totfact>
</mgrwt>
</event>
<event>
 9      1 +9.5563000e+06 1.24997200e+02 7.81860800e-03 1.23507400e-01
       21 -1    0    0  502  501 +0.0000000000e+00 +0.0000000000e+00 +1.3838974715e+02 1.3838974715e+02 0.0000000000e+00 0.0000e+00 -1.0000e+00
       21 -1    0    0  501  502 -0.0000000000e+00 -0.0000000000e+00 -2.8225189500e+01 2.8225189500e+01 0.0000000000e+00 0.0000e+00 -1.0000e+00
       25  2    1    2    0    0 +0.0000000000e+00 -3.5527136788e-15 +1.1016455765e+02 1.6661493665e+02 1.2499722938e+02 0.0000e+00 0.0000e+00
  9000006  2    3    3    0    0 -6.9537410924e+00 -2.6854820537e+01 +1.0733219637e+02 1.1785472530e+02 3.9999999946e+01 0.0000e+00 0.0000e+00
  9000006  2    3    3    0    0 +6.9537410924e+00 +2.6854820537e+01 +2.8323612815e+00 4.8760211356e+01 4.0000000497e+01 0.0000e+00 0.0000e+00
      -11  1    4    4    0    0 -3.4764082891e+00 -1.2000934332e+01 +3.5941924092e+00 1.3001002212e+01 0.0000000000e+00 0.0000e+00 1.0000e+00
       13  1    4    4    0    0 -3.4773328033e+00 -1.4853886205e+01 +1.0373800396e+02 1.0485372309e+02 0.0000000000e+00 0.0000e+00 1.0000e+00
      -11  1    5    5    0    0 -9.7347761207e-01 +1.8456328296e+00 +1.8223996885e+01 1.8343066310e+01 0.0000000000e+00 0.0000e+00 1.0000e+00
       13  1    5    5    0    0 +7.9272187045e+00 +2.5009187708e+01 -1.5391635603e+01 3.0417145046e+01 0.0000000000e+00 0.0000e+00 1.0000e+00
<mgrwt>
<rscale>  0 0.12499723E+03</rscale>
<asrwt>0</asrwt>
<pdfrwt beam="1">  1       21 0.34597435E-01 0.12499723E+03</pdfrwt>
<pdfrwt beam="2">  1       21 0.70562977E-02 0.12499723E+03</pdfrwt>
<totfact> 0.12003129E+06</totfact>
</mgrwt>
</event>
<event>
 9      1 +9.5563000e+06 1.25001500e+02 7.81860800e-03 1.23506700e-01
       21 -1    0    0  502  501 +0.0000000000e+00 +0.0000000000e+00 +1.3952720447e+01 1.3952720447e+01 0.0000000000e+00 0.0000e+00 -1.0000e+00
       21 -1    0    0  501  502 -0.0000000000e+00 -0.0000000000e+00 -2.7996987093e+02 2.7996987093e+02 0.0000000000e+00 0.0000e+00 -1.0000e+00
       25  2    1    2    0    0 +0.0000000000e+00 +3.5527136788e-15 -2.6601715048e+02 2.9392259137e+02 1.2500146147e+02 0.0000e+00 0.0000e+00
  9000006  2    3    3    0    0 +3.8654529507e+01 +8.0437807319e+00 -6.8722978101e+01 8.8779067196e+01 3.9999999916e+01 0.0000e+00 0.0000e+00
  9000006  2    3    3    0    0 -3.8654529507e+01 -8.0437807319e+00 -1.9729417238e+02 2.0514352418e+02 3.9999999966e+01 0.0000e+00 0.0000e+00
      -11  1    5    5    0    0 -7.8835183781e+00 +1.0857785129e+01 -1.9194071438e+01 2.3419089186e+01 0.0000000000e+00 0.0000e+00 1.0000e+00
       13  1    4    4    0    0 +3.2217741972e+01 +1.8095404678e+01 -6.7275588547e+01 7.6755660264e+01 0.0000000000e+00 0.0000e+00 1.0000e+00
      -11  1    4    4    0    0 +6.4367875354e+00 -1.0051623946e+01 -1.4473895532e+00 1.2023406931e+01 0.0000000000e+00 0.0000e+00 1.0000e+00
       13  1    5    5    0    0 -3.0771011129e+01 -1.8901565860e+01 -1.7810010094e+02 1.8172443499e+02 0.0000000000e+00 0.0000e+00 1.0000e+00
<mgrwt>
<rscale>  0 0.12500146E+03</rscale>
<asrwt>0</asrwt>
<pdfrwt beam="1">  1       21 0.34881801E-02 0.12500146E+03</pdfrwt>
<pdfrwt beam="2">  1       21 0.69992467E-01 0.12500146E+03</pdfrwt>
<totfact> 0.91668270E+05</totfact>
</mgrwt>
</event>
<event>
 9      1 +9.5563000e+06 1.24999500e+02 7.81860800e-03 1.23507000e-01
       21 -1    0    0  502  501 +0.0000000000e+00 +0.0000000000e+00 +3.7696742719e+01 3.7696742719e+01 0.0000000000e+00 0.0000e+00 1.0000e+00
       21 -1    0    0  501  502 -0.0000000000e+00 -0.0000000000e+00 -1.0362226404e+02 1.0362226404e+02 0.0000000000e+00 0.0000e+00 1.0000e+00
       25  2    1    2    0    0 +0.0000000000e+00 -7.1054273576e-15 -6.5925521317e+01 1.4131900675e+02 1.2499954924e+02 0.0000e+00 0.0000e+00
  9000006  2    3    3    0    0 +2.4575057510e+01 -3.9543200920e+01 -1.9651758052e+01 6.4449901409e+01 4.0000000081e+01 0.0000e+00 0.0000e+00
  9000006  2    3    3    0    0 -2.4575057510e+01 +3.9543200920e+01 -4.6273763265e+01 7.6869105345e+01 3.9999999991e+01 0.0000e+00 0.0000e+00
      -11  1    5    5    0    0 -2.7351705023e+01 +2.4607843807e+01 -1.0902296361e+01 3.8373451897e+01 0.0000000000e+00 0.0000e+00 1.0000e+00
       13  1    4    4    0    0 -1.0385909907e+00 -1.3871240297e+01 +1.0386963514e+01 1.7360270437e+01 0.0000000000e+00 0.0000e+00 1.0000e+00
      -11  1    4    4    0    0 +2.5613648500e+01 -2.5671960623e+01 -3.0038721566e+01 4.7089630972e+01 0.0000000000e+00 0.0000e+00 1.0000e+00
       13  1    5    5    0    0 +2.7766475131e+00 +1.4935357112e+01 -3.5371466904e+01 3.8495653448e+01 0.0000000000e+00 0.0000e+00 1.0000e+00
<mgrwt>
<rscale>  0 0.12499955E+03</rscale>
<asrwt>0</asrwt>
<pdfrwt beam="1">  1       21 0.94241858E-02 0.12499955E+03</pdfrwt>
<pdfrwt beam="2">  1       21 0.25905566E-01 0.12499955E+03</pdfrwt>
<totfact> 0.12724765E+06</totfact>
</mgrwt>
</event>
<event>
 9      1 +9.5563000e+06 1.24994700e+02 7.81860800e-03 1.23507800e-01
       21 -1    0    0  502  501 +0.0000000000e+00 +0.0000000000e+00 +3.7977418324e+02 3.7977418324e+02 0.0000000000e+00 0.0000e+00 -1.0000e+00
       21 -1    0    0  501  502 -0.0000000000e+00 -0.0000000000e+00 -1.0284837299e+01 1.0284837299e+01 0.0000000000e+00 0.0000e+00 -1.0000e+00
       25  2    1    2    0    0 +0.0000000000e+00 +1.7763568394e-15 +3.6948934594e+02 3.9005902054e+02 1.2499465084e+02 0.0000e+00 0.0000e+00
  9000006  2    3    3    0    0 +3.8575693734e+01 +9.5799676197e+00 +1.0065863653e+02 1.1537773206e+02 4.0000000242e+01 0.0000e+00 0.0000e+00
  9000006  2    3    3    0    0 -3.8575693734e+01 -9.5799676197e+00 +2.6883070941e+02 2.7468128849e+02 3.9999999923e+01 0.0000e+00 0.0000e+00
      -11  1    5    5    0    0 -9.7657317865e+00 +1.4270312988e+01 +1.1916623137e+02 1.2041429338e+02 0.0000000000e+00 0.0000e+00 1.0000e+00
       13  1    4    4    0    0 +3.0385094951e+01 +4.8435897538e+00 +2.6469008993e+01 4.0587224517e+01 0.0000000000e+00 0.0000e+00 1.0000e+00
      -11  1    4    4    0    0 +8.1905987828e+00 +4.7363778660e+00 +7.4189627538e+01 7.4790507539e+01 0.0000000000e+00 0.0000e+00 1.0000e+00
       13  1    5    5    0    0 -2.8809961948e+01 -2.3850280608e+01 +1.4966447804e+02 1.5426699511e+02 0.0000000000e+00 0.0000e+00 1.0000e+00
<mgrwt>
<rscale>  0 0.12499465E+03</rscale>
<asrwt>0</asrwt>
<pdfrwt beam="1">  1       21 0.94943499E-01 0.12499465E+03</pdfrwt>
<pdfrwt beam="2">  1       21 0.25712106E-02 0.12499465E+03</pdfrwt>
<totfact> 0.76295886E+05</totfact>
</mgrwt>
</event>
<event>
 9      1 +9.5563000e+06 1.24998400e+02 7.81860800e-03 1.23507200e-01
       21 -1    0    0  502  501 +0.0000000000e+00 +0.0000000000e+00 +1.6233254252e+01 1.6233254252e+01 0.0000000000e+00 0.0000e+00 1.0000e+00
       21 -1    0    0  501  502 -0.0000000000e+00 -0.0000000000e+00 -2.4062646834e+02 2.4062646834e+02 0.0000000000e+00 0.0000e+00 1.0000e+00
       25  2    1    2    0    0 +7.1054273576e-15 +0.0000000000e+00 -2.2439321408e+02 2.5685972259e+02 1.2499841023e+02 0.0000e+00 0.0000e+00
  9000006  2    3    3    0    0 +3.6024668770e+01 +3.0579154223e+01 -9.4604756698e+01 1.1306158246e+02 4.0000000069e+01 0.0000e+00 0.0000e+00
  9000006  2    3    3    0    0 -3.6024668770e+01 -3.0579154223e+01 -1.2978845739e+02 1.4379814013e+02 4.0000000004e+01 0.0000e+00 0.0000e+00
      -11  1    5    5    0    0 -4.3712853307e+01 -2.3359728701e+01 -9.1236336375e+01 1.0382947339e+02 0.0000000000e+00 0.0000e+00 1.0000e+00
       13  1    4    4    0    0 +2.6722454820e+01 +9.9114381145e+00 -1.9302817826e+01 3.4422739187e+01 0.0000000000e+00 0.0000e+00 1.0000e+00
      -11  1    4    4    0    0 +9.3022139500e+00 +2.0667716108e+01 -7.5301938872e+01 7.8638843273e+01 0.0000000000e+00 0.0000e+00 1.0000e+00
       13  1    5    5    0    0 +7.6881845364e+00 -7.2194255222e+00 -3.8552121011e+01 3.9968666738e+01 0.0000000000e+00 0.0000e+00 1.0000e+00
<mgrwt>
<rscale>  0 0.12499841E+03</rscale>
<asrwt>0</asrwt>
<pdfrwt beam="1">  1       21 0.40583135E-02 0.12499841E+03</pdfrwt>
<pdfrwt beam="2">  1       21 0.60156618E-01 0.12499841E+03</pdfrwt>
<totfact> 0.98811236E+05</totfact>
</mgrwt>
</event>
<event>
 9      1 +9.5563000e+06 1.24997200e+02 7.81860800e-03 1.23507400e-01
       21 -1    0    0  502  501 +0.0000000000e+00 +0.0000000000e+00 +5.5574315302e+02 5.5574315302e+02 0.0000000000e+00 0.0000e+00 1.0000e+00
       21 -1    0    0  501  502 -0.0000000000e+00 -0.0000000000e+00 -7.0285671140e+00 7.0285671140e+00 0.0000000000e+00 0.0000e+00 1.0000e+00
       25  2    1    2    0    0 +3.5527136788e-15 +0.0000000000e+00 +5.4871458590e+02 5.6277172013e+02 1.2499724876e+02 0.0000e+00 0.0000e+00
  9000006  2    3    3    0    0 +2.3120847112e+01 -4.1821822887e+01 +2.5302982128e+02 2.6059111439e+02 4.0000000002e+01 0.0000e+00 0.0000e+00
  9000006  2    3    3    0    0 -2.3120847112e+01 +4.1821822887e+01 +2.9568476462e+02 3.0218060574e+02 4.0000000205e+01 0.0000e+00 0.0000e+00
      -11  1    5    5    0    0 -3.5466809380e+00 +3.7644840178e+01 +1.3303819605e+02 1.3830717460e+02 0.0000000000e+00 0.0000e+00 1.0000e+00
       13  1    4    4    0    0 -8.9032448538e+00 -1.6878990048e+01 +1.1994472078e+02 1.2145330015e+02 0.0000000000e+00 0.0000e+00 1.0000e+00
      -11  1    4    4    0    0 +3.2024091965e+01 -2.4942832839e+01 +1.3308510051e+02 1.3913781425e+02 0.0000000000e+00 0.0000e+00 1.0000e+00
       13  1    5    5    0    0 -1.9574166174e+01 +4.1769827091e+00 +1.6264656857e+02 1.6387343114e+02 0.0000000000e+00 0.0000e+00 1.0000e+00
<mgrwt>
<rscale>  0 0.12499725E+03</rscale>
<asrwt>0</asrwt>
<pdfrwt beam="1">  1       21 0.13893564E+00 0.12499725E+03</pdfrwt>
<pdfrwt beam="2">  1       21 0.17571437E-02 0.12499725E+03</pdfrwt>
<totfact> 0.56302799E+05</totfact>
</mgrwt>
</event>
<event>
 9      1 +9.5563000e+06 1.24966900e+02 7.81860800e-03 1.23512100e-01
       21 -1    0    0  502  501 +0.0000000000e+00 +0.0000000000e+00 +3.0691239878e+02 3.0691239878e+02 0.0000000000e+00 0.0000e+00 1.0000e+00
       21 -1    0    0  501  502 -0.0000000000e+00 -0.0000000000e+00 -1.2720827659e+01 1.2720827659e+01 0.0000000000e+00 0.0000e+00 1.0000e+00
       25  2    1    2    0    0 +4.4408920985e-16 +3.5527136788e-15 +2.9419157112e+02 3.1963322644e+02 1.2496687131e+02 0.0000e+00 0.0000e+00
  9000006  2    3    3    0    0 +1.6434397830e+00 +2.3211290694e+01 +3.9709690671e+01 6.0978065285e+01 4.0000000034e+01 0.0000e+00 0.0000e+00
  9000006  2    3    3    0    0 -1.6434397830e+00 -2.3211290694e+01 +2.5448188045e+02 2.5865516116e+02 4.0000000053e+01 0.0000e+00 0.0000e+00
      -11  1    4    4    0    0 -1.2076624664e+01 -4.5688760833e+00 +2.1386393188e+01 2.4981939587e+01 0.0000000000e+00 0.0000e+00 1.0000e+00
       13  1    4    4    0    0 +1.3720064447e+01 +2.7780166777e+01 +1.8323297483e+01 3.5996125698e+01 0.0000000000e+00 0.0000e+00 1.0000e+00
      -11  1    5    5    0    0 -3.9813003931e+00 +4.5515421433e+00 +5.6741241419e+00 8.2923442693e+00 0.0000000000e+00 0.0000e+00 1.0000e+00
       13  1    5    5    0    0 +2.3378606101e+00 -2.7762832837e+01 +2.4880775631e+02 2.5036281689e+02 0.0000000000e+00 0.0000e+00 1.0000e+00
<mgrwt>
<rscale>  0 0.12496687E+03</rscale>
<asrwt>0</asrwt>
<pdfrwt beam="1">  1       21 0.76728075E-01 0.12496687E+03</pdfrwt>
<pdfrwt beam="2">  1       21 0.31802079E-02 0.12496687E+03</pdfrwt>
<totfact> 0.87230845E+05</totfact>
</mgrwt>
</event>
<event>
 9      1 +9.5563000e+06 1.24948000e+02 7.81860800e-03 1.23515100e-01
       21 -1    0    0  502  501 +0.0000000000e+00 +0.0000000000e+00 +2.2998493296e+01 2.2998493296e+01 0.0000000000e+00 0.0000e+00 -1.0000e+00
       21 -1    0    0  501  502 -0.0000000000e+00 -0.0000000000e+00 -1.6970671793e+02 1.6970671793e+02 0.0000000000e+00 0.0000e+00 -1.0000e+00
       25  2    1    2    0    0 +0.0000000000e+00 +0.0000000000e+00 -1.4670822463e+02 1.9270521122e+02 1.2494797020e+02 0.0000e+00 0.0000e+00
  9000006  2    3    3    0    0 +2.1955709661e+01 -4.1294937307e+01 -5.6766582361e+01 8.3724368660e+01 4.0000000009e+01 0.0000e+00 0.0000e+00
  9000006  2    3    3    0    0 -2.1955709661e+01 +4.1294937307e+01 -8.9941642273e+01 1.0898084256e+02 3.9999999969e+01 0.0000e+00 0.0000e+00
      -11  1    5    5    0    0 -2.1295526491e+01 +6.4625213767e+00 -5.6349607430e+01 6.0584997224e+01 0.0000000000e+00 0.0000e+00 1.0000e+00
       13  1    4    4    0    0 +8.6288607827e+00 +7.1887540772e-01 +3.2609314267e+00 9.2524425980e+00 0.0000000000e+00 0.0000e+00 1.0000e+00
      -11  1    4    4    0    0 +1.3326848878e+01 -4.2013812715e+01 -6.0027513788e+01 7.4471926062e+01 0.0000000000e+00 0.0000e+00 1.0000e+00
       13  1    5    5    0    0 -6.6018316917e-01 +3.4832415931e+01 -3.3592034842e+01 4.8395845341e+01 0.0000000000e+00 0.0000e+00 1.0000e+00
<mgrwt>
<rscale>  0 0.12494797E+03</rscale>
<asrwt>0</asrwt>
<pdfrwt beam="1">  1       21 0.57496234E-02 0.12494797E+03</pdfrwt>
<pdfrwt beam="2">  1       21 0.42426679E-01 0.12494797E+03</pdfrwt>
<totfact> 0.11338493E+06</totfact>
</mgrwt>
</event>
<event>
 9      1 +9.5563000e+06 1.24997300e+02 7.81860800e-03 1.23507300e-01
       21 -1    0    0  502  501 +0.0000000000e+00 +0.0000000000e+00 +2.4325440901e+01 2.4325440901e+01 0.0000000000e+00 0.0000e+00 1.0000e+00
       21 -1    0    0  501  502 -0.0000000000e+00 -0.0000000000e+00 -1.6057606420e+02 1.6057606420e+02 0.0000000000e+00 0.0000e+00 1.0000e+00
       25  2    1    2    0    0 +0.0000000000e+00 -3.5527136788e-15 -1.3625062330e+02 1.8490150510e+02 1.2499733693e+02 0.0000e+00 0.0000e+00
  9000006  2    3    3    0    0 -3.2589494019e+01 -2.2606495564e+01 -2.8077546559e+01 6.2940268397e+01 4.0000000038e+01 0.0000e+00 0.0000e+00
  9000006  2    3    3    0    0 +3.2589494019e+01 +2.2606495564e+01 -1.0817307674e+02 1.2196123671e+02 3.9999999565e+01 0.0000e+00 0.0000e+00
      -11  1    4    4    0    0 +9.6143427753e-01 -3.1091941042e-03 +8.4081246192e+00 8.4629146959e+00 0.0000000000e+00 0.0000e+00 1.0000e+00
       13  1    4    4    0    0 -3.3550928296e+01 -2.2603386370e+01 -3.6485671179e+01 5.4477353701e+01 0.0000000000e+00 0.0000e+00 1.0000e+00
      -11  1    5    5    0    0 +3.9351124381e+01 +1.4134017308e+01 -6.3779486633e+01 7.6263388008e+01 0.0000000000e+00 0.0000e+00 1.0000e+00
       13  1    5    5    0    0 -6.7616303623e+00 +8.4724782568e+00 -4.4393590107e+01 4.5697848697e+01 0.0000000000e+00 0.0000e+00 1.0000e+00
<mgrwt>
<rscale>  0 0.12499734E+03</rscale>
<asrwt>0</asrwt>
<pdfrwt beam="1">  1       21 0.60813604E-02 0.12499734E+03</pdfrwt>
<pdfrwt beam="2">  1       21 0.40144015E-01 0.12499734E+03</pdfrwt>
<totfact> 0.11521355E+06</totfact>
</mgrwt>
</event>
<event>
 8      1 +9.5563000e+06 1.24903900e+02 7.81860800e-03 1.23521900e-01
       21 -1    0    0  502  501 +0.0000000000e+00 +0.0000000000e+00 +2.5226540553e+02 2.5226540553e+02 0.0000000000e+00 0.0000e+00 -1.0000e+00
       21 -1    0    0  501  502 -0.0000000000e+00 -0.0000000000e+00 -1.5460892801e+01 1.5460892801e+01 0.0000000000e+00 0.0000e+00 -1.0000e+00
  9000006  2    1    2    0    0 -1.5070622162e+01 +4.5322192253e+01 +1.0905332529e+02 1.2559399882e+02 4.0000000249e+01 0.0000e+00 0.0000e+00
  9000006  2    1    2    0    0 +1.5070622162e+01 -4.5322192253e+01 +1.2775118743e+02 1.4213229951e+02 3.9999998866e+01 0.0000e+00 0.0000e+00
      -11  1    3    3    0    0 -2.8478155293e+01 +2.5413911413e+01 +6.2976891915e+01 7.3640757312e+01 0.0000000000e+00 0.0000e+00 1.0000e+00
       13  1    3    3    0    0 +1.3407533131e+01 +1.9908280840e+01 +4.6076433378e+01 5.1953241511e+01 0.0000000000e+00 0.0000e+00 1.0000e+00
      -11  1    4    4    0    0 +3.6402025269e+00 -3.5514811862e+01 +1.1999106867e+02 1.2518949436e+02 0.0000000000e+00 0.0000e+00 1.0000e+00
       13  1    4    4    0    0 +1.1430419635e+01 -9.8073803911e+00 +7.7601187614e+00 1.6942805150e+01 0.0000000000e+00 0.0000e+00 1.0000e+00
<mgrwt>
<rscale>  0 0.12490394E+03</rscale>
<asrwt>0</asrwt>
<pdfrwt beam="1">  1       21 0.63066338E-01 0.12490394E+03</pdfrwt>
<pdfrwt beam="2">  1       21 0.38652240E-02 0.12490394E+03</pdfrwt>
<totfact> 0.96874029E+05</totfact>
</mgrwt>
</event>
<event>
 9      1 +9.5563000e+06 1.25001100e+02 7.81860800e-03 1.23506800e-01
       21 -1    0    0  502  501 +0.0000000000e+00 +0.0000000000e+00 +3.7606203012e+00 3.7606203012e+00 0.0000000000e+00 0.0000e+00 1.0000e+00
       21 -1    0    0  501  502 -0.0000000000e+00 -0.0000000000e+00 -1.0387435103e+03 1.0387435103e+03 0.0000000000e+00 0.0000e+00 1.0000e+00
       25  2    1    2    0    0 +0.0000000000e+00 +0.0000000000e+00 -1.0349828900e+03 1.0425041306e+03 1.2500111892e+02 0.0000e+00 0.0000e+00
  9000006  2    3    3    0    0 -5.3225008123e+00 -2.6193525973e+01 -1.8473963534e+02 1.9090092376e+02 4.0000000079e+01 0.0000e+00 0.0000e+00
  9000006  2    3    3    0    0 +5.3225008123e+00 +2.6193525973e+01 -8.5024325469e+02 8.5160320688e+02 4.0000000055e+01 0.0000e+00 0.0000e+00
      -11  1    4    4    0    0 -1.5790789023e+00 -2.6961555557e+01 -5.6694400224e+01 6.2798678211e+01 0.0000000000e+00 0.0000e+00 1.0000e+00
       13  1    4    4    0    0 -3.7434219100e+00 +7.6802958404e-01 -1.2804523512e+02 1.2810224554e+02 0.0000000000e+00 0.0000e+00 1.0000e+00
      -11  1    5    5    0    0 +1.2537418075e+01 -3.7025605108e+00 -1.1947041351e+02 1.2018350765e+02 0.0000000000e+00 0.0000e+00 1.0000e+00
       13  1    5    5    0    0 -7.2149172625e+00 +2.9896086484e+01 -7.3077284118e+02 7.3141969923e+02 0.0000000000e+00 0.0000e+00 1.0000e+00
<mgrwt>
<rscale>  0 0.12500112E+03</rscale>
<asrwt>0</asrwt>
<pdfrwt beam="1">  1       21 0.94015545E-03 0.12500112E+03</pdfrwt>
<pdfrwt beam="2">  1       21 0.25968578E+00 0.12500112E+03</pdfrwt>
<totfact> 0.25288349E+05</totfact>
</mgrwt>
</event>
<event>
 9      1 +9.5563000e+06 1.25001400e+02 7.81860800e-03 1.23506700e-01
       21 -1    0    0  502  501 +0.0000000000e+00 +0.0000000000e+00 +2.4547003202e+02 2.4547003202e+02 0.0000000000e+00 0.0000e+00 1.0000e+00
       21 -1    0    0  501  502 -0.0000000000e+00 -0.0000000000e+00 -1.5913699859e+01 1.5913699859e+01 0.0000000000e+00 0.0000e+00 1.0000e+00
       25  2    1    2    0    0 +0.0000000000e+00 +0.0000000000e+00 +2.2955633216e+02 2.6138373188e+02 1.2500138262e+02 0.0000e+00 0.0000e+00
  9000006  2    3    3    0    0 -3.0590635836e+01 +3.6193083291e+01 +1.3105749666e+02 1.4498894337e+02 3.9999999890e+01 0.0000e+00 0.0000e+00
  9000006  2    3    3    0    0 +3.0590635836e+01 -3.6193083291e+01 +9.8498835503e+01 1.1639478851e+02 3.9999998961e+01 0.0000e+00 0.0000e+00
      -11  1    5    5    0    0 +3.0375208032e+01 -3.8073857782e+01 +5.7515674872e+01 7.5367929290e+01 0.0000000000e+00 0.0000e+00 1.0000e+00
       13  1    4    4    0    0 -2.8904295963e+01 +1.7613409738e+01 +4.1717664109e+01 5.3722006910e+01 0.0000000000e+00 0.0000e+00 1.0000e+00
      -11  1    4    4    0    0 -1.6863398731e+00 +1.8579673553e+01 +8.9339832550e+01 9.1266936464e+01 0.0000000000e+00 0.0000e+00 1.0000e+00
       13  1    5    5    0    0 +2.1542780364e-01 +1.8807744916e+00 +4.0983160631e+01 4.1026859216e+01 0.0000000000e+00 0.0000e+00 1.0000e+00
<mgrwt>
<rscale>  0 0.12500138E+03</rscale>
<asrwt>0</asrwt>
<pdfrwt beam="1">  1       21 0.61367496E-01 0.12500138E+03</pdfrwt>
<pdfrwt beam="2">  1       21 0.39784257E-02 0.12500138E+03</pdfrwt>
<totfact> 0.97889557E+05</totfact>
</mgrwt>
</event>
<event>
 9      1 +9.5563000e+06 1.25004600e+02 7.81860800e-03 1.23506200e-01
       21 -1    0    0  502  501 +0.0000000000e+00 +0.0000000000e+00 +2.3703150217e+02 2.3703150217e+02 0.0000000000e+00 0.0000e+00 1.0000e+00
       21 -1    0    0  501  502 -0.0000000000e+00 -0.0000000000e+00 -1.6481102016e+01 1.6481102016e+01 0.0000000000e+00 0.0000e+00 1.0000e+00
       25  2    1    2    0    0 +0.0000000000e+00 -1.7763568394e-15 +2.2055040015e+02 2.5351260418e+02 1.2500464580e+02 0.0000e+00 0.0000e+00
  9000006  2    3    3    0    0 +8.1018183799e+00 -4.7486673848e+00 +2.0579393015e+02 2.0985550029e+02 4.0000000181e+01 0.0000e+00 0.0000e+00
  9000006  2    3    3    0    0 -8.1018183799e+00 +4.7486673848e+00 +1.4756470004e+01 4.3657103890e+01 4.0000000126e+01 0.0000e+00 0.0000e+00
      -11  1    5    5    0    0 +1.1028820600e+01 +1.5192988407e+01 +3.3977684332e+00 1.9078957280e+01 0.0000000000e+00 0.0000e+00 1.0000e+00
       13  1    4    4    0    0 +9.4844105224e+00 -1.7697881429e+01 +5.5897677671e+01 5.9394607659e+01 0.0000000000e+00 0.0000e+00 1.0000e+00
      -11  1    4    4    0    0 -1.3825921426e+00 +1.2949214044e+01 +1.4989625248e+02 1.5046089264e+02 0.0000000000e+00 0.0000e+00 1.0000e+00
       13  1    5    5    0    0 -1.9130638980e+01 -1.0444321022e+01 +1.1358701570e+01 2.4578146610e+01 0.0000000000e+00 0.0000e+00 1.0000e+00
<mgrwt>
<rscale>  0 0.12500465E+03</rscale>
<asrwt>0</asrwt>
<pdfrwt beam="1">  1       21 0.59257865E-01 0.12500465E+03</pdfrwt>
<pdfrwt beam="2">  1       21 0.41202763E-02 0.12500465E+03</pdfrwt>
<totfact> 0.99479620E+05</totfact>
</mgrwt>
</event>
<event>
 8      1 +9.5563000e+06 1.25439100e+02 7.81860800e-03 1.23438500e-01
       21 -1    0    0  502  501 +0.0000000000e+00 +0.0000000000e+00 +5.8929224494e+02 5.8929224494e+02 0.0000000000e+00 0.0000e+00 1.0000e+00
       21 -1    0    0  501  502 -0.0000000000e+00 -0.0000000000e+00 -6.6753670486e+00 6.6753670486e+00 0.0000000000e+00 0.0000e+00 1.0000e+00
  9000006  2    1    2    0    0 +4.2732474190e+01 -1.5738648382e+01 +3.6791280591e+02 3.7287209893e+02 4.0000000023e+01 0.0000e+00 0.0000e+00
  9000006  2    1    2    0    0 -4.2732474190e+01 +1.5738648382e+01 +2.1470407198e+02 2.2309551306e+02 4.0000000246e+01 0.0000e+00 0.0000e+00
      -11  1    3    3    0    0 +5.0090031547e+01 -1.5798171361e+01 +3.0011780473e+02 3.0467899533e+02 0.0000000000e+00 0.0000e+00 1.0000e+00
       13  1    3    3    0    0 -7.3575573566e+00 +5.9522979038e-02 +6.7795001186e+01 6.8193103604e+01 0.0000000000e+00 0.0000e+00 1.0000e+00
      -11  1    4    4    0    0 -4.7849354137e+01 +1.5219848418e+01 +1.4986765290e+02 1.5805542656e+02 0.0000000000e+00 0.0000e+00 1.0000e+00
       13  1    4    4    0    0 +5.1168799465e+00 +5.1879996413e-01 +6.4836419076e+01 6.5040086503e+01 0.0000000000e+00 0.0000e+00 1.0000e+00
<mgrwt>
<rscale>  0 0.12543910E+03</rscale>
<asrwt>0</asrwt>
<pdfrwt beam="1">  1       21 0.14732288E+00 0.12543910E+03</pdfrwt>
<pdfrwt beam="2">  1       21 0.16688438E-02 0.12543910E+03</pdfrwt>
<totfact> 0.52643302E+05</totfact>
</mgrwt>
</event>
<event>
 9      1 +9.5563000e+06 1.25004400e+02 7.81860800e-03 1.23506200e-01
       21 -1    0    0  502  501 +0.0000000000e+00 +0.0000000000e+00 +7.9936939091e+00 7.9936939091e+00 0.0000000000e+00 0.0000e+00 1.0000e+00
       21 -1    0    0  501  502 -0.0000000000e+00 -0.0000000000e+00 -4.8870096070e+02 4.8870096070e+02 0.0000000000e+00 0.0000e+00 1.0000e+00
       25  2    1    2    0    0 -7.1054273576e-15 +8.8817841970e-16 -4.8070726679e+02 4.9669465461e+02 1.2500441421e+02 0.0000e+00 0.0000e+00
  9000006  2    3    3    0    0 -4.7113851945e+01 -7.1893464468e+00 -2.1680491942e+02 2.2555658896e+02 3.9999999885e+01 0.0000e+00 0.0000e+00
  9000006  2    3    3    0    0 +4.7113851945e+01 +7.1893464468e+00 -2.6390234737e+02 2.7113806565e+02 3.9999999362e+01 0.0000e+00 0.0000e+00
      -11  1    5    5    0    0 +2.1833827378e+01 +1.9385622940e+01 -8.1151915860e+01 8.6244720664e+01 0.0000000000e+00 0.0000e+00 1.0000e+00
       13  1    4    4    0    0 -1.6462266852e+00 -1.1139245464e+01 -9.1666287315e+01 9.2355298072e+01 0.0000000000e+00 0.0000e+00 1.0000e+00
      -11  1    4    4    0    0 -4.5467625260e+01 +3.9498990175e+00 -1.2513863211e+02 1.3320129089e+02 0.0000000000e+00 0.0000e+00 1.0000e+00
       13  1    5    5    0    0 +2.5280024567e+01 -1.2196276494e+01 -1.8275043151e+02 1.8489334498e+02 0.0000000000e+00 0.0000e+00 1.0000e+00
<mgrwt>
<rscale>  0 0.12500441E+03</rscale>
<asrwt>0</asrwt>
<pdfrwt beam="1">  1       21 0.19984236E-02 0.12500441E+03</pdfrwt>
<pdfrwt beam="2">  1       21 0.12217523E+00 0.12500441E+03</pdfrwt>
<totfact> 0.63024614E+05</totfact>
</mgrwt>
</event>
<event>
 9      1 +9.5563000e+06 1.25021800e+02 7.81860800e-03 1.23503500e-01
       21 -1    0    0  502  501 +0.0000000000e+00 +0.0000000000e+00 +1.0443560700e+03 1.0443560700e+03 0.0000000000e+00 0.0000e+00 -1.0000e+00
       21 -1    0    0  501  502 -0.0000000000e+00 -0.0000000000e+00 -3.7416492476e+00 3.7416492476e+00 0.0000000000e+00 0.0000e+00 -1.0000e+00
       25  2    1    2    0    0 +0.0000000000e+00 +0.0000000000e+00 +1.0406144207e+03 1.0480977192e+03 1.2502182375e+02 0.0000e+00 0.0000e+00
  9000006  2    3    3    0    0 +3.8996931252e+00 -4.4200570794e+01 +6.7459580721e+02 6.7723585343e+02 3.9999999981e+01 0.0000e+00 0.0000e+00
  9000006  2    3    3    0    0 -3.8996931252e+00 +4.4200570794e+01 +3.6601861350e+02 3.7086186578e+02 3.9999999926e+01 0.0000e+00 0.0000e+00
      -11  1    4    4    0    0 -8.4933612222e+00 -2.9234766290e+01 +2.0600331863e+02 2.0824066853e+02 0.0000000000e+00 0.0000e+00 1.0000e+00
       13  1    4    4    0    0 +1.2393054347e+01 -1.4965804504e+01 +4.6859248858e+02 4.6899518490e+02 0.0000000000e+00 0.0000e+00 1.0000e+00
      -11  1    5    5    0    0 -2.1055840381e+00 +8.7936453033e+00 +1.1763296140e+01 1.4837008389e+01 0.0000000000e+00 0.0000e+00 1.0000e+00
       13  1    5    5    0    0 -1.7941090871e+00 +3.5406925491e+01 +3.5425531736e+02 3.5602485739e+02 0.0000000000e+00 0.0000e+00 1.0000e+00
<mgrwt>
<rscale>  0 0.12502182E+03</rscale>
<asrwt>0</asrwt>
<pdfrwt beam="1">  1       21 0.26108802E+00 0.12502182E+03</pdfrwt>
<pdfrwt beam="2">  1       21 0.93541589E-03 0.12502182E+03</pdfrwt>
<totfact> 0.25026956E+05</totfact>
</mgrwt>
</event>
<event>
 9      1 +9.5563000e+06 1.25016500e+02 7.81860800e-03 1.23504400e-01
       21 -1    0    0  502  501 +0.0000000000e+00 +0.0000000000e+00 +4.4988688936e+02 4.4988688936e+02 0.0000000000e+00 0.0000e+00 1.0000e+00
       21 -1    0    0  501  502 -0.0000000000e+00 -0.0000000000e+00 -8.6850245215e+00 8.6850245215e+00 0.0000000000e+00 0.0000e+00 1.0000e+00
       25  2    1    2    0    0 +0.0000000000e+00 +1.7763568394e-15 +4.4120186484e+02 4.5857191389e+02 1.2501645757e+02 0.0000e+00 0.0000e+00
  9000006  2    3    3    0    0 +4.7304893977e+01 -4.7094868138e+00 +2.4584061138e+02 2.5356959292e+02 3.9999999828e+01 0.0000e+00 0.0000e+00
  9000006  2    3    3    0    0 -4.7304893977e+01 +4.7094868138e+00 +1.9536125346e+02 2.0500232097e+02 3.9999999867e+01 0.0000e+00 0.0000e+00
      -11  1    4    4    0    0 +1.6773645955e+01 -1.6779222276e+01 +1.5843591525e+02 1.6020248669e+02 0.0000000000e+00 0.0000e+00 1.0000e+00
       13  1    4    4    0    0 +3.0531248022e+01 +1.2069735463e+01 +8.7404696130e+01 9.3367106229e+01 0.0000000000e+00 0.0000e+00 1.0000e+00
      -11  1    5    5    0    0 -3.7629138412e+00 -1.2327564457e+01 +7.0611182601e+01 7.1777903803e+01 0.0000000000e+00 0.0000e+00 1.0000e+00
       13  1    5    5    0    0 -4.3541980136e+01 +1.7037051271e+01 +1.2475007086e+02 1.3322441717e+02 0.0000000000e+00 0.0000e+00 1.0000e+00
<mgrwt>
<rscale>  0 0.12501646E+03</rscale>
<asrwt>0</asrwt>
<pdfrwt beam="1">  1       21 0.11247164E+00 0.12501646E+03</pdfrwt>
<pdfrwt beam="2">  1       21 0.21712576E-02 0.12501646E+03</pdfrwt>
<totfact> 0.67343793E+05</totfact>
</mgrwt>
</event>
<event>
 9      1 +9.5563000e+06 1.25008600e+02 7.81860800e-03 1.23505600e-01
       21 -1    0    0  502  501 +0.0000000000e+00 +0.0000000000e+00 +1.3840990933e+01 1.3840990933e+01 0.0000000000e+00 0.0000e+00 -1.0000e+00
       21 -1    0    0  501  502 -0.0000000000e+00 -0.0000000000e+00 -2.8226197039e+02 2.8226197039e+02 0.0000000000e+00 0.0000e+00 -1.0000e+00
       25  2    1    2    0    0 +3.5527136788e-15 +0.0000000000e+00 -2.6842097945e+02 2.9610296132e+02 1.2500856567e+02 0.0000e+00 0.0000e+00
  9000006  2    3    3    0    0 +1.6909680010e+01 +8.7816490498e+00 -2.9781510566e+01 5.3385325474e+01 3.9999999578e+01 0.0000e+00 0.0000e+00
  9000006  2    3    3    0    0 -1.6909680010e+01 -8.7816490498e+00 -2.3863946889e+02 2.4271763585e+02 4.0000000021e+01 0.0000e+00 0.0000e+00
      -11  1    5    5    0    0 +7.9437389960e+00 +9.2428085733e+00 -4.3388842316e+01 4.5067994598e+01 0.0000000000e+00 0.0000e+00 1.0000e+00
       13  1    4    4    0    0 -7.2101878376e+00 -1.0972562497e+01 -8.8203137435e+00 1.5817138519e+01 0.0000000000e+00 0.0000e+00 1.0000e+00
      -11  1    4    4    0    0 +2.4119867848e+01 +1.9754211547e+01 -2.0961196822e+01 3.7568186955e+01 0.0000000000e+00 0.0000e+00 1.0000e+00
       13  1    5    5    0    0 -2.4853419006e+01 -1.8024457623e+01 -1.9525062657e+02 1.9764964125e+02 0.0000000000e+00 0.0000e+00 1.0000e+00
<mgrwt>
<rscale>  0 0.12500857E+03</rscale>
<asrwt>0</asrwt>
<pdfrwt beam="1">  1       21 0.34602479E-02 0.12500857E+03</pdfrwt>
<pdfrwt beam="2">  1       21 0.70565490E-01 0.12500857E+03</pdfrwt>
<totfact> 0.91255518E+05</totfact>
</mgrwt>
</event>
<event>
 8      1 +9.5563000e+06 1.25005600e+02 7.81860800e-03 1.23506100e-01
       21 -1    0    0  502  501 +0.0000000000e+00 +0.0000000000e+00 +1.1341049000e+02 1.1341049000e+02 0.0000000000e+00 0.0000e+00 1.0000e+00
       21 -1    0    0  501  502 -0.0000000000e+00 -0.0000000000e+00 -3.4446544539e+01 3.4446544539e+01 0.0000000000e+00 0.0000e+00 1.0000e+00
       25  2    1    2    0    0 +0.0000000000e+00 +3.5527136788e-15 +7.8963945463e+01 1.4785703454e+02 1.2500559180e+02 0.0000e+00 0.0000e+00
  9000006  2    3    3    0    0 -3.9861749507e+01 +2.6724228570e+01 +3.7283130138e+01 7.2754211244e+01 3.9999999931e+01 0.0000e+00 0.0000e+00
      -11  1    3    3    0    0 -1.9283761238e+00 -1.1591665676e+00 -6.2030121369e+00 6.5984590001e+00 0.0000000000e+00 0.0000e+00 1.0000e+00
       13  1    4    4    0    0 -1.5523670248e+01 +3.1916149802e+01 +3.0912572672e+01 4.7066039831e+01 0.0000000000e+00 0.0000e+00 1.0000e+00
      -11  1    4    4    0    0 -2.4338079259e+01 -5.1919212324e+00 +6.3705574661e+00 2.5688171413e+01 0.0000000000e+00 0.0000e+00 1.0000e+00
       13  1    3    3    0    0 +4.1790125631e+01 -2.5565062002e+01 +4.7883827461e+01 6.8504364297e+01 0.0000000000e+00 0.0000e+00 1.0000e+00
<mgrwt>
<rscale>  0 0.12500559E+03</rscale>
<asrwt>0</asrwt>
<pdfrwt beam="1">  1       21 0.28352622E-01 0.12500559E+03</pdfrwt>
<pdfrwt beam="2">  1       21 0.86116364E-02 0.12500559E+03</pdfrwt>
<totfact> 0.12529967E+06</totfact>
</mgrwt>
</event>
<event>
 9      1 +9.5563000e+06 1.24999700e+02 7.81860800e-03 1.23507000e-01
       21 -1    0    0  502  501 +0.0000000000e+00 +0.0000000000e+00 +6.2975147212e+01 6.2975147212e+01 0.0000000000e+00 0.0000e+00 1.0000e+00
       21 -1    0    0  501  502 -0.0000000000e+00 -0.0000000000e+00 -6.2028126946e+01 6.2028126946e+01 0.0000000000e+00 0.0000e+00 1.0000e+00
       25  2    1    2    0    0 +0.0000000000e+00 +7.1054273576e-15 +9.4702026620e-01 1.2500327416e+02 1.2499968681e+02 0.0000e+00 0.0000e+00
  9000006  2    3    3    0    0 +1.2820899149e+01 +3.5015404869e+01 -2.9789155949e+01 6.2272368146e+01 3.9999999866e+01 0.0000e+00 0.0000e+00
  9000006  2    3    3    0    0 -1.2820899149e+01 -3.5015404869e+01 +3.0736176216e+01 6.2730906012e+01 4.0000000096e+01 0.0000e+00 0.0000e+00
      -11  1    5    5    0    0 -8.6810044877e+00 -4.9643753695e+00 -8.5077476904e+00 1.3129609000e+01 0.0000000000e+00 0.0000e+00 1.0000e+00
       13  1    4    4    0    0 -1.1320591696e+01 +8.3742084628e+00 -2.0961708873e+01 2.5252255396e+01 0.0000000000e+00 0.0000e+00 1.0000e+00
      -11  1    4    4    0    0 +2.4141490845e+01 +2.6641196406e+01 -8.8274470766e+00 3.7020112750e+01 0.0000000000e+00 0.0000e+00 1.0000e+00
       13  1    5    5    0    0 -4.1398946610e+00 -3.0051029499e+01 +3.9243923906e+01 4.9601297012e+01 0.0000000000e+00 0.0000e+00 1.0000e+00
<mgrwt>
<rscale>  0 0.12499969E+03</rscale>
<asrwt>0</asrwt>
<pdfrwt beam="1">  1       21 0.15743787E-01 0.12499969E+03</pdfrwt>
<pdfrwt beam="2">  1       21 0.15507032E-01 0.12499969E+03</pdfrwt>
<totfact> 0.13226694E+06</totfact>
</mgrwt>
</event>
<event>
 9      1 +9.5563000e+06 1.25001700e+02 7.81860800e-03 1.23506700e-01
       21 -1    0    0  502  501 +0.0000000000e+00 +0.0000000000e+00 +1.7956124719e+02 1.7956124719e+02 0.0000000000e+00 0.0000e+00 -1.0000e+00
       21 -1    0    0  501  502 -0.0000000000e+00 -0.0000000000e+00 -2.1754991509e+01 2.1754991509e+01 0.0000000000e+00 0.0000e+00 -1.0000e+00
       25  2    1    2    0    0 -8.8817841970e-16 -7.1054273576e-15 +1.5780625568e+02 2.0131623870e+02 1.2500165452e+02 0.0000e+00 0.0000e+00
  9000006  2    3    3    0    0 -7.8550063070e+00 -3.7845948628e+01 +1.2480506552e+02 1.3663938427e+02 4.0000000049e+01 0.0000e+00 0.0000e+00
  9000006  2    3    3    0    0 +7.8550063070e+00 +3.7845948628e+01 +3.3001190163e+01 6.4676854426e+01 3.9999999932e+01 0.0000e+00 0.0000e+00
      -11  1    5    5    0    0 +2.2256229290e+01 +1.1732745352e+01 +1.0246568088e+01 2.7165956881e+01 0.0000000000e+00 0.0000e+00 1.0000e+00
       13  1    4    4    0    0 -1.1549096861e+01 +3.1245242095e+00 +4.8479661778e+01 4.9934175631e+01 0.0000000000e+00 0.0000e+00 1.0000e+00
      -11  1    4    4    0    0 +3.6940905544e+00 -4.0970472838e+01 +7.6325403738e+01 8.6705208641e+01 0.0000000000e+00 0.0000e+00 1.0000e+00
       13  1    5    5    0    0 -1.4401222983e+01 +2.6113203277e+01 +2.2754622075e+01 3.7510897544e+01 0.0000000000e+00 0.0000e+00 1.0000e+00
<mgrwt>
<rscale>  0 0.12500165E+03</rscale>
<asrwt>0</asrwt>
<pdfrwt beam="1">  1       21 0.44890307E-01 0.12500165E+03</pdfrwt>
<pdfrwt beam="2">  1       21 0.54387484E-02 0.12500165E+03</pdfrwt>
<totfact> 0.11110833E+06</totfact>
</mgrwt>
</event>
<event>
 9      1 +9.5563000e+06 1.25000300e+02 7.81860800e-03 1.23506900e-01
       21 -1    0    0  502  501 +0.0000000000e+00 +0.0000000000e+00 +4.5945404368e+00 4.5945404368e+00 0.0000000000e+00 0.0000e+00 -1.0000e+00
       21 -1    0    0  501  502 -0.0000000000e+00 -0.0000000000e+00 -8.5019730922e+02 8.5019730922e+02 0.0000000000e+00 0.0000e+00 -1.0000e+00
       25  2    1    2    0    0 +0.0000000000e+00 +0.0000000000e+00 -8.4560276878e+02 8.5479184965e+02 1.2500025466e+02 0.0000e+00 0.0000e+00
  9000006  2    3    3    0    0 +3.8469612127e+01 -1.3537689686e+01 -2.4938747066e+02 2.5584622456e+02 4.0000000042e+01 0.0000e+00 0.0000e+00
  9000006  2    3    3    0    0 -3.8469612127e+01 +1.3537689686e+01 -5.9621529812e+02 5.9894562509e+02 3.9999999997e+01 0.0000e+00 0.0000e+00
      -11  1    4    4    0    0 +3.6419017235e+01 +1.6863272963e-01 -1.1225146225e+02 1.1801171141e+02 0.0000000000e+00 0.0000e+00 1.0000e+00
       13  1    4    4    0    0 +2.0505948917e+00 -1.3706322415e+01 -1.3713600841e+02 1.3783451315e+02 0.0000000000e+00 0.0000e+00 1.0000e+00
      -11  1    5    5    0    0 -1.3067692577e+00 -9.3121760032e+00 -4.3166234372e+01 4.4178592753e+01 0.0000000000e+00 0.0000e+00 1.0000e+00
       13  1    5    5    0    0 -3.7162842869e+01 +2.2849865689e+01 -5.5304906375e+02 5.5476703234e+02 0.0000000000e+00 0.0000e+00 1.0000e+00
<mgrwt>
<rscale>  0 0.12500025E+03</rscale>
<asrwt>0</asrwt>
<pdfrwt beam="1">  1       21 0.11486351E-02 0.12500025E+03</pdfrwt>
<pdfrwt beam="2">  1       21 0.21254934E+00 0.12500025E+03</pdfrwt>
<totfact> 0.34776664E+05</totfact>
</mgrwt>
</event>
<event>
 9      1 +9.5563000e+06 1.25001900e+02 7.81860800e-03 1.23506600e-01
       21 -1    0    0  502  501 +0.0000000000e+00 +0.0000000000e+00 +3.0166712948e+02 3.0166712948e+02 0.0000000000e+00 0.0000e+00 1.0000e+00
       21 -1    0    0  501  502 -0.0000000000e+00 -0.0000000000e+00 -1.2949263999e+01 1.2949263999e+01 0.0000000000e+00 0.0000e+00 1.0000e+00
       25  2    1    2    0    0 +7.1054273576e-15 +0.0000000000e+00 +2.8871786548e+02 3.1461639348e+02 1.2500187678e+02 0.0000e+00 0.0000e+00
  9000006  2    3    3    0    0 -2.6984223512e+01 -1.0393412804e+01 +4.7853350658e+01 6.8746741312e+01 3.9999999045e+01 0.0000e+00 0.0000e+00
  9000006  2    3    3    0    0 +2.6984223512e+01 +1.0393412804e+01 +2.4086451482e+02 2.4586965216e+02 4.0000000095e+01 0.0000e+00 0.0000e+00
      -11  1    5    5    0    0 +2.1986752462e+00 +2.0746833245e+01 +1.3741433537e+02 1.3898908169e+02 0.0000000000e+00 0.0000e+00 1.0000e+00
       13  1    4    4    0    0 +7.0199618367e+00 +3.8641160866e+00 -3.9419099819e-01 8.0228825158e+00 0.0000000000e+00 0.0000e+00 1.0000e+00
      -11  1    4    4    0    0 -3.4004185348e+01 -1.4257528890e+01 +4.8247541657e+01 6.0723858797e+01 0.0000000000e+00 0.0000e+00 1.0000e+00
       13  1    5    5    0    0 +2.4785548265e+01 -1.0353420441e+01 +1.0345017945e+02 1.0688057048e+02 0.0000000000e+00 0.0000e+00 1.0000e+00
<mgrwt>
<rscale>  0 0.12500188E+03</rscale>
<asrwt>0</asrwt>
<pdfrwt beam="1">  1       21 0.75416759E-01 0.12500188E+03</pdfrwt>
<pdfrwt beam="2">  1       21 0.32373170E-02 0.12500188E+03</pdfrwt>
<totfact> 0.88007285E+05</totfact>
</mgrwt>
</event>
<event>
 9      1 +9.5563000e+06 1.24998000e+02 7.81860800e-03 1.23507200e-01
       21 -1    0    0  502  501 +0.0000000000e+00 +0.0000000000e+00 +1.0830262886e+03 1.0830262886e+03 0.0000000000e+00 0.0000e+00 -1.0000e+00
       21 -1    0    0  501  502 -0.0000000000e+00 -0.0000000000e+00 -3.6066759109e+00 3.6066759109e+00 0.0000000000e+00 0.0000e+00 -1.0000e+00
       25  2    1    2    0    0 -7.1054273576e-15 +0.0000000000e+00 +1.0794196127e+03 1.0866329645e+03 1.2499799720e+02 0.0000e+00 0.0000e+00
  9000006  2    3    3    0    0 -2.0411121546e+01 +4.2264723468e+01 +4.5139606398e+02 4.5558898945e+02 4.0000000002e+01 0.0000e+00 0.0000e+00
  9000006  2    3    3    0    0 +2.0411121546e+01 -4.2264723468e+01 +6.2802354868e+02 6.3104397503e+02 3.9999999911e+01 0.0000e+00 0.0000e+00
      -11  1    5    5    0    0 -8.0744936211e+00 -2.0244884293e+01 +1.3917406625e+02 1.4087041386e+02 0.0000000000e+00 0.0000e+00 1.0000e+00
       13  1    4    4    0    0 +7.6338709492e+00 +1.2803111078e+01 +2.3033848022e+02 2.3082030047e+02 0.0000000000e+00 0.0000e+00 1.0000e+00
      -11  1    4    4    0    0 -2.8044992495e+01 +2.9461612390e+01 +2.2105758376e+02 2.2476868898e+02 0.0000000000e+00 0.0000e+00 1.0000e+00
       13  1    5    5    0    0 +2.8485615167e+01 -2.2019839175e+01 +4.8884948243e+02 4.9017356116e+02 0.0000000000e+00 0.0000e+00 1.0000e+00
<mgrwt>
<rscale>  0 0.12499800E+03</rscale>
<asrwt>0</asrwt>
<pdfrwt beam="1">  1       21 0.27075546E+00 0.12499800E+03</pdfrwt>
<pdfrwt beam="2">  1       21 0.90167269E-03 0.12499800E+03</pdfrwt>
<totfact> 0.23379101E+05</totfact>
</mgrwt>
</event>
<event>
 9      1 +9.5563000e+06 1.24999600e+02 7.81860800e-03 1.23507000e-01
       21 -1    0    0  502  501 +0.0000000000e+00 +0.0000000000e+00 +1.1722874029e+01 1.1722874029e+01 0.0000000000e+00 0.0000e+00 1.0000e+00
       21 -1    0    0  501  502 -0.0000000000e+00 -0.0000000000e+00 -3.3321370444e+02 3.3321370444e+02 0.0000000000e+00 0.0000e+00 1.0000e+00
       25  2    1    2    0    0 -3.5527136788e-15 +1.7763568394e-15 -3.2149083041e+02 3.4493657847e+02 1.2499955651e+02 0.0000e+00 0.0000e+00
  9000006  2    3    3    0    0 -3.1733167876e+01 +1.2188339905e+01 -2.5435206161e+02 2.5971238095e+02 3.9999999981e+01 0.0000e+00 0.0000e+00
  9000006  2    3    3    0    0 +3.1733167876e+01 -1.2188339905e+01 -6.7138768803e+01 8.5224197524e+01 3.9999999928e+01 0.0000e+00 0.0000e+00
      -11  1    5    5    0    0 +3.4152603827e+01 -2.0421673365e+01 -3.8658062291e+01 5.5478742517e+01 0.0000000000e+00 0.0000e+00 1.0000e+00
       13  1    4    4    0    0 -1.1663897659e+01 +2.3541651611e+00 -2.0709952903e+02 2.0744108447e+02 0.0000000000e+00 0.0000e+00 1.0000e+00
      -11  1    4    4    0    0 -2.0069270217e+01 +9.8341747436e+00 -4.7252532578e+01 5.2271296473e+01 0.0000000000e+00 0.0000e+00 1.0000e+00
       13  1    5    5    0    0 -2.4194359508e+00 +8.2333334604e+00 -2.8480706512e+01 2.9745455007e+01 0.0000000000e+00 0.0000e+00 1.0000e+00
<mgrwt>
<rscale>  0 0.12499956E+03</rscale>
<asrwt>0</asrwt>
<pdfrwt beam="1">  1       21 0.29307188E-02 0.12499956E+03</pdfrwt>
<pdfrwt beam="2">  1       21 0.83303417E-01 0.12499956E+03</pdfrwt>
<totfact> 0.83017604E+05</totfact>
</mgrwt>
</event>
<event>
 9      1 +9.5563000e+06 1.24997500e+02 7.81860800e-03 1.23507300e-01
       21 -1    0    0  502  501 +0.0000000000e+00 +0.0000000000e+00 +1.6371933756e+02 1.6371933756e+02 0.0000000000e+00 0.0000e+00 -1.0000e+00
       21 -1    0    0  501  502 -0.0000000000e+00 -0.0000000000e+00 -2.3858469151e+01 2.3858469151e+01 0.0000000000e+00 0.0000e+00 -1.0000e+00
       25  2    1    2    0    0 +0.0000000000e+00 +3.5527136788e-15 +1.3986086841e+02 1.8757780671e+02 1.2499748421e+02 0.0000e+00 0.0000e+00
  9000006  2    3    3    0    0 -1.6599401148e+01 +3.1952801484e+01 +2.2249073462e+01 5.8236955019e+01 4.0000000235e+01 0.0000e+00 0.0000e+00
  9000006  2    3    3    0    0 +1.6599401148e+01 -3.1952801484e+01 +1.1761179495e+02 1.2934085170e+02 3.9999999558e+01 0.0000e+00 0.0000e+00
      -11  1    4    4    0    0 -1.2266727203e+01 +1.7349857270e+01 -9.3067824793e+00 2.3197119297e+01 0.0000000000e+00 0.0000e+00 1.0000e+00
       13  1    4    4    0    0 -4.3326739451e+00 +1.4602944214e+01 +3.1555855941e+01 3.5039835722e+01 0.0000000000e+00 0.0000e+00 1.0000e+00
      -11  1    5    5    0    0 +2.5670163168e+01 -1.2894474763e+01 +9.0693042888e+01 9.5133867706e+01 0.0000000000e+00 0.0000e+00 1.0000e+00
       13  1    5    5    0    0 -9.0707620195e+00 -1.9058326722e+01 +2.6918752063e+01 3.4206983989e+01 0.0000000000e+00 0.0000e+00 1.0000e+00
<mgrwt>
<rscale>  0 0.12499748E+03</rscale>
<asrwt>0</asrwt>
<pdfrwt beam="1">  1       21 0.40929831E-01 0.12499748E+03</pdfrwt>
<pdfrwt beam="2">  1       21 0.59646178E-02 0.12499748E+03</pdfrwt>
<totfact> 0.11452973E+06</totfact>
</mgrwt>
</event>
<event>
 9      1 +9.5563000e+06 1.25030900e+02 7.81860800e-03 1.23502100e-01
       21 -1    0    0  502  501 +0.0000000000e+00 +0.0000000000e+00 +7.2601704086e+01 7.2601704086e+01 0.0000000000e+00 0.0000e+00 1.0000e+00
       21 -1    0    0  501  502 -0.0000000000e+00 -0.0000000000e+00 -5.3830441639e+01 5.3830441639e+01 0.0000000000e+00 0.0000e+00 1.0000e+00
       25  2    1    2    0    0 -7.1054273576e-15 +0.0000000000e+00 +1.8771262447e+01 1.2643214573e+02 1.2503090490e+02 0.0000e+00 0.0000e+00
  9000006  2    3    3    0    0 -4.4523803997e+01 +4.0332060420e+00 +2.7176726095e+01 6.5857500079e+01 4.0000000026e+01 0.0000e+00 0.0000e+00
  9000006  2    3    3    0    0 +4.4523803997e+01 -4.0332060420e+00 -8.4054636478e+00 6.0574645646e+01 4.0000000033e+01 0.0000e+00 0.0000e+00
      -11  1    5    5    0    0 -4.3979209504e+00 -2.1657806850e+00 +7.6203893591e+00 9.0610511888e+00 0.0000000000e+00 0.0000e+00 1.0000e+00
       13  1    4    4    0    0 -3.1862761552e+01 -9.4123411415e+00 +3.2663610080e+01 4.6591191903e+01 0.0000000000e+00 0.0000e+00 1.0000e+00
      -11  1    4    4    0    0 -1.2661042445e+01 +1.3445547184e+01 -5.4868839854e+00 1.9266308176e+01 0.0000000000e+00 0.0000e+00 1.0000e+00
       13  1    5    5    0    0 +4.8921724948e+01 -1.8674253570e+00 -1.6025853007e+01 5.1513594457e+01 0.0000000000e+00 0.0000e+00 1.0000e+00
<mgrwt>
<rscale>  0 0.12503090E+03</rscale>
<asrwt>0</asrwt>
<pdfrwt beam="1">  1       21 0.18150426E-01 0.12503090E+03</pdfrwt>
<pdfrwt beam="2">  1       21 0.13457610E-01 0.12503090E+03</pdfrwt>
<totfact> 0.13171479E+06</totfact>
</mgrwt>
</event>
<event>
 9      1 +9.5563000e+06 1.25003600e+02 7.81860800e-03 1.23506400e-01
       21 -1    0    0  502  501 +0.0000000000e+00 +0.0000000000e+00 +1.3625130456e+01 1.3625130456e+01 0.0000000000e+00 0.0000e+00 -1.0000e+00
       21 -1    0    0  501  502 -0.0000000000e+00 -0.0000000000e+00 -2.8671086752e+02 2.8671086752e+02 0.0000000000e+00 0.0000e+00 -1.0000e+00
       25  2    1    2    0    0 +0.0000000000e+00 -1.7763568394e-15 -2.7308573707e+02 3.0033599798e+02 1.2500356752e+02 0.0000e+00 0.0000e+00
  9000006  2    3    3    0    0 +4.5436505390e+01 -1.3361119803e+01 -1.1740054508e+02 1.3276250801e+02 4.0000000024e+01 0.0000e+00 0.0000e+00
  9000006  2    3    3    0    0 -4.5436505390e+01 +1.3361119803e+01 -1.5568519198e+02 1.6757348997e+02 3.9999999926e+01 0.0000e+00 0.0000e+00
      -11  1    4    4    0    0 +1.9188086909e+01 +3.8748613242e+00 -8.6570998469e+01 8.8756605418e+01 0.0000000000e+00 0.0000e+00 1.0000e+00
       13  1    4    4    0    0 +2.6248418481e+01 -1.7235981127e+01 -3.0829546616e+01 4.4005902590e+01 0.0000000000e+00 0.0000e+00 1.0000e+00
      -11  1    5    5    0    0 -4.6863446223e+01 -5.3995487078e-01 -1.0475500675e+02 1.1476099330e+02 0.0000000000e+00 0.0000e+00 1.0000e+00
       13  1    5    5    0    0 +1.4269408332e+00 +1.3901074674e+01 -5.0930185229e+01 5.2812496672e+01 0.0000000000e+00 0.0000e+00 1.0000e+00
<mgrwt>
<rscale>  0 0.12500357E+03</rscale>
<asrwt>0</asrwt>
<pdfrwt beam="1">  1       21 0.34062827E-02 0.12500357E+03</pdfrwt>
<pdfrwt beam="2">  1       21 0.71677715E-01 0.12500357E+03</pdfrwt>
<totfact> 0.90505771E+05</totfact>
</mgrwt>
</event>
<event>
 9      1 +9.5563000e+06 1.25000200e+02 7.81860800e-03 1.23506900e-01
       21 -1    0    0  502  501 +0.0000000000e+00 +0.0000000000e+00 +3.6019223816e+01 3.6019223816e+01 0.0000000000e+00 0.0000e+00 1.0000e+00
       21 -1    0    0  501  502 -0.0000000000e+00 -0.0000000000e+00 -1.0844942307e+02 1.0844942307e+02 0.0000000000e+00 0.0000e+00 1.0000e+00
       25  2    1    2    0    0 +0.0000000000e+00 +0.0000000000e+00 -7.2430199250e+01 1.4446864688e+02 1.2500022467e+02 0.0000e+00 0.0000e+00
  9000006  2    3    3    0    0 -1.7454416814e+01 +3.2105025536e+01 -2.0333469664e-01 5.4179614917e+01 3.9999999956e+01 0.0000e+00 0.0000e+00
  9000006  2    3    3    0    0 +1.7454416814e+01 -3.2105025536e+01 -7.2226864553e+01 9.0289031966e+01 3.9999999989e+01 0.0000e+00 0.0000e+00
      -11  1    4    4    0    0 -1.3883859132e+01 +1.0720364011e+01 +1.8537990905e+01 2.5521458730e+01 0.0000000000e+00 0.0000e+00 1.0000e+00
       13  1    4    4    0    0 -3.5705576823e+00 +2.1384661526e+01 -1.8741325601e+01 2.8658156187e+01 0.0000000000e+00 0.0000e+00 1.0000e+00
      -11  1    5    5    0    0 +8.8633580955e+00 -1.4640542653e+01 -1.7844411007e+00 1.7207232083e+01 0.0000000000e+00 0.0000e+00 1.0000e+00
       13  1    5    5    0    0 +8.5910587187e+00 -1.7464482883e+01 -7.0442423452e+01 7.3081799883e+01 0.0000000000e+00 0.0000e+00 1.0000e+00
<mgrwt>
<rscale>  0 0.12500022E+03</rscale>
<asrwt>0</asrwt>
<pdfrwt beam="1">  1       21 0.90048060E-02 0.12500022E+03</pdfrwt>
<pdfrwt beam="2">  1       21 0.27112356E-01 0.12500022E+03</pdfrwt>
<totfact> 0.12631540E+06</totfact>
</mgrwt>
</event>
<event>
 9      1 +9.5563000e+06 1.24999600e+02 7.81860800e-03 1.23507000e-01
       21 -1    0    0  502  501 +0.0000000000e+00 +0.0000000000e+00 +1.7603105811e+02 1.7603105811e+02 0.0000000000e+00 0.0000e+00 -1.0000e+00
       21 -1    0    0  501  502 -0.0000000000e+00 -0.0000000000e+00 -2.2190559748e+01 2.2190559748e+01 0.0000000000e+00 0.0000e+00 -1.0000e+00
       25  2    1    2    0    0 +3.5527136788e-15 +0.0000000000e+00 +1.5384049836e+02 1.9822161786e+02 1.2499964340e+02 0.0000e+00 0.0000e+00
  9000006  2    3    3    0    0 -1.1249435599e+01 -4.6369715752e+01 +6.8303278550e+01 9.2423147565e+01 4.0000000060e+01 0.0000e+00 0.0000e+00
  9000006  2    3    3    0    0 +1.1249435599e+01 +4.6369715752e+01 +8.5537219812e+01 1.0579847029e+02 4.0000000037e+01 0.0000e+00 0.0000e+00
      -11  1    4    4    0    0 -2.4511887665e+01 -4.0795761549e+01 +5.6010003478e+01 7.3499981543e+01 0.0000000000e+00 0.0000e+00 1.0000e+00
       13  1    4    4    0    0 +1.3262452066e+01 -5.5739542026e+00 +1.2293275073e+01 1.8923166021e+01 0.0000000000e+00 0.0000e+00 1.0000e+00
      -11  1    5    5    0    0 +1.6972735496e+01 +2.4309134973e+01 +1.8388913455e+01 3.4887819241e+01 0.0000000000e+00 0.0000e+00 1.0000e+00
       13  1    5    5    0    0 -5.7232998966e+00 +2.2060580779e+01 +6.7148306357e+01 7.0910651052e+01 0.0000000000e+00 0.0000e+00 1.0000e+00
<mgrwt>
<rscale>  0 0.12499964E+03</rscale>
<asrwt>0</asrwt>
<pdfrwt beam="1">  1       21 0.44007760E-01 0.12499964E+03</pdfrwt>
<pdfrwt beam="2">  1       21 0.55476405E-02 0.12499964E+03</pdfrwt>
<totfact> 0.11186796E+06</totfact>
</mgrwt>
</event>
<event>
 9      1 +9.5563000e+06 1.25004100e+02 7.81860800e-03 1.23506300e-01
       21 -1    0    0  502  501 +0.0000000000e+00 +0.0000000000e+00 +2.8541462524e+01 2.8541462524e+01 0.0000000000e+00 0.0000e+00 1.0000e+00
       21 -1    0    0  501  502 -0.0000000000e+00 -0.0000000000e+00 -1.3687132524e+02 1.3687132524e+02 0.0000000000e+00 0.0000e+00 1.0000e+00
       25  2    1    2    0    0 +7.1054273576e-15 -1.6653345369e-15 -1.0832986272e+02 1.6541278776e+02 1.2500412473e+02 0.0000e+00 0.0000e+00
  9000006  2    3    3    0    0 -4.7981768090e+01 +2.2102941774e-01 -5.6879642956e+01 8.4484274860e+01 3.9999999910e+01 0.0000e+00 0.0000e+00
  9000006  2    3    3    0    0 +4.7981768090e+01 -2.2102941774e-01 -5.1450219760e+01 8.0928512904e+01 4.0000002056e+01 0.0000e+00 0.0000e+00
      -11  1    4    4    0    0 -5.1266994877e+01 -3.9393398734e-01 -3.4359312283e+01 6.1717277064e+01 0.0000000000e+00 0.0000e+00 1.0000e+00
       13  1    4    4    0    0 +3.2852267868e+00 +6.1496340508e-01 -2.2520330672e+01 2.2766997796e+01 0.0000000000e+00 0.0000e+00 1.0000e+00
      -11  1    5    5    0    0 +2.8548521336e+01 -1.9880014494e+01 -2.7280050274e+01 4.4208983133e+01 0.0000000000e+00 0.0000e+00 1.0000e+00
       13  1    5    5    0    0 +1.9433246754e+01 +1.9658985076e+01 -2.4170169486e+01 3.6719529771e+01 0.0000000000e+00 0.0000e+00 1.0000e+00
<mgrwt>
<rscale>  0 0.12500412E+03</rscale>
<asrwt>0</asrwt>
<pdfrwt beam="1">  1       21 0.71353658E-02 0.12500412E+03</pdfrwt>
<pdfrwt beam="2">  1       21 0.34217831E-01 0.12500412E+03</pdfrwt>
<totfact> 0.12033745E+06</totfact>
</mgrwt>
</event>
<event>
 9      1 +9.5563000e+06 1.25002500e+02 7.81860800e-03 1.23506500e-01
       21 -1    0    0  502  501 +0.0000000000e+00 +0.0000000000e+00 +1.5166515290e+02 1.5166515290e+02 0.0000000000e+00 0.0000e+00 1.0000e+00
       21 -1    0    0  501  502 -0.0000000000e+00 -0.0000000000e+00 -2.5756762521e+01 2.5756762521e+01 0.0000000000e+00 0.0000e+00 1.0000e+00
       25  2    1    2    0    0 +0.0000000000e+00 +1.7763568394e-15 +1.2590839038e+02 1.7742191542e+02 1.2500245319e+02 0.0000e+00 0.0000e+00
  9000006  2    3    3    0    0 +4.7454106178e+00 -4.6764579090e+00 -4.5508887646e+00 4.0805621834e+01 4.0000000052e+01 0.0000e+00 0.0000e+00
  9000006  2    3    3    0    0 -4.7454106178e+00 +4.6764579090e+00 +1.3045927915e+02 1.3661629359e+02 3.9999999728e+01 0.0000e+00 0.0000e+00
      -11  1    4    4    0    0 -4.7831999240e+00 -1.8811804398e+01 +6.5234120816e+00 2.0477253024e+01 0.0000000000e+00 0.0000e+00 1.0000e+00
       13  1    4    4    0    0 +9.5286105418e+00 +1.4135346489e+01 -1.1074300846e+01 2.0328368810e+01 0.0000000000e+00 0.0000e+00 1.0000e+00
      -11  1    5    5    0    0 +1.5046230728e+01 +1.1872667758e+01 +7.0835732854e+01 7.3382902285e+01 0.0000000000e+00 0.0000e+00 1.0000e+00
       13  1    5    5    0    0 -1.9791641346e+01 -7.1962098493e+00 +5.9623546293e+01 6.3233391305e+01 0.0000000000e+00 0.0000e+00 1.0000e+00
<mgrwt>
<rscale>  0 0.12500245E+03</rscale>
<asrwt>0</asrwt>
<pdfrwt beam="1">  1       21 0.37916286E-01 0.12500245E+03</pdfrwt>
<pdfrwt beam="2">  1       21 0.64391911E-02 0.12500245E+03</pdfrwt>
<totfact> 0.11713217E+06</totfact>
</mgrwt>
</event>
<event>
 9      1 +9.5563000e+06 1.25001900e+02 7.81860800e-03 1.23506600e-01
       21 -1    0    0  502  501 +0.0000000000e+00 +0.0000000000e+00 +8.5896247794e+01 8.5896247794e+01 0.0000000000e+00 0.0000e+00 1.0000e+00
       21 -1    0    0  501  502 -0.0000000000e+00 -0.0000000000e+00 -4.5477792625e+01 4.5477792625e+01 0.0000000000e+00 0.0000e+00 1.0000e+00
       25  2    1    2    0    0 +0.0000000000e+00 +1.4210854715e-14 +4.0418455169e+01 1.3137404042e+02 1.2500194790e+02 0.0000e+00 0.0000e+00
  9000006  2    3    3    0    0 -8.9058260059e+00 +3.7874937104e+01 -9.3780720452e+00 5.6584210151e+01 4.0000000071e+01 0.0000e+00 0.0000e+00
  9000006  2    3    3    0    0 +8.9058260059e+00 -3.7874937104e+01 +4.9796527214e+01 7.4789830267e+01 3.9999999892e+01 0.0000e+00 0.0000e+00
      -11  1    5    5    0    0 -1.1742132604e+01 -2.0716374189e+01 +8.0129863305e+00 2.5124764428e+01 0.0000000000e+00 0.0000e+00 1.0000e+00
       13  1    4    4    0    0 +2.5397400976e+00 -8.0072335916e+00 -2.7190095226e+00 8.8294440559e+00 0.0000000000e+00 0.0000e+00 1.0000e+00
      -11  1    4    4    0    0 -1.1445566103e+01 +4.5882170695e+01 -6.6590625226e+00 4.7754766095e+01 0.0000000000e+00 0.0000e+00 1.0000e+00
       13  1    5    5    0    0 +2.0647958609e+01 -1.7158562914e+01 +4.1783540884e+01 4.9665065839e+01 0.0000000000e+00 0.0000e+00 1.0000e+00
<mgrwt>
<rscale>  0 0.12500195E+03</rscale>
<asrwt>0</asrwt>
<pdfrwt beam="1">  1       21 0.21474062E-01 0.12500195E+03</pdfrwt>
<pdfrwt beam="2">  1       21 0.11369448E-01 0.12500195E+03</pdfrwt>
<totfact> 0.13026037E+06</totfact>
</mgrwt>
</event>
<event>
 9      1 +9.5563000e+06 1.25000300e+02 7.81860800e-03 1.23506900e-01
       21 -1    0    0  502  501 +0.0000000000e+00 +0.0000000000e+00 +2.3727509325e+02 2.3727509325e+02 0.0000000000e+00 0.0000e+00 1.0000e+00
       21 -1    0    0  501  502 -0.0000000000e+00 -0.0000000000e+00 -1.6463039981e+01 1.6463039981e+01 0.0000000000e+00 0.0000e+00 1.0000e+00
       25  2    1    2    0    0 +0.0000000000e+00 +0.0000000000e+00 +2.2081205327e+02 2.5373813323e+02 1.2500030955e+02 0.0000e+00 0.0000e+00
  9000006  2    3    3    0    0 -3.3424730968e+01 -3.1548462876e+01 +1.3866112639e+02 1.5145767106e+02 4.0000000011e+01 0.0000e+00 0.0000e+00
  9000006  2    3    3    0    0 +3.3424730968e+01 +3.1548462876e+01 +8.2150926882e+01 1.0228046217e+02 4.0000000060e+01 0.0000e+00 0.0000e+00
      -11  1    4    4    0    0 -2.9287360469e+01 -3.8878426114e+01 +1.3210958805e+02 1.4079142287e+02 0.0000000000e+00 0.0000e+00 1.0000e+00
       13  1    4    4    0    0 -4.1373704992e+00 +7.3299632375e+00 +6.5515383386e+00 1.0666248184e+01 0.0000000000e+00 0.0000e+00 1.0000e+00
      -11  1    5    5    0    0 +3.7969280736e+01 +3.2519520565e+01 +8.3604779743e+01 9.7411214412e+01 0.0000000000e+00 0.0000e+00 1.0000e+00
       13  1    5    5    0    0 -4.5445497674e+00 -9.7105768872e-01 -1.4538528611e+00 4.8692477617e+00 0.0000000000e+00 0.0000e+00 1.0000e+00
<mgrwt>
<rscale>  0 0.12500031E+03</rscale>
<asrwt>0</asrwt>
<pdfrwt beam="1">  1       21 0.59318762E-01 0.12500031E+03</pdfrwt>
<pdfrwt beam="2">  1       21 0.41157608E-02 0.12500031E+03</pdfrwt>
<totfact> 0.99444497E+05</totfact>
</mgrwt>
</event>
<event>
 9      1 +9.5563000e+06 1.25000700e+02 7.81860800e-03 1.23506800e-01
       21 -1    0    0  502  501 +0.0000000000e+00 +0.0000000000e+00 +4.4047140321e+02 4.4047140321e+02 0.0000000000e+00 0.0000e+00 1.0000e+00
       21 -1    0    0  501  502 -0.0000000000e+00 -0.0000000000e+00 -8.8684402645e+00 8.8684402645e+00 0.0000000000e+00 0.0000e+00 1.0000e+00
       25  2    1    2    0    0 +0.0000000000e+00 -1.7763568394e-15 +4.3160296294e+02 4.4933984347e+02 1.2500070924e+02 0.0000e+00 0.0000e+00
  9000006  2    3    3    0    0 -3.3623654310e+01 -9.0152615323e+00 +3.3472403880e+02 3.3889822544e+02 3.9999999780e+01 0.0000e+00 0.0000e+00
  9000006  2    3    3    0    0 +3.3623654310e+01 +9.0152615323e+00 +9.6878924138e+01 1.1044161803e+02 3.9999999774e+01 0.0000e+00 0.0000e+00
      -11  1    4    4    0    0 -3.9793747194e+01 -1.0711602390e+01 +3.2229169449e+02 3.2491570765e+02 0.0000000000e+00 0.0000e+00 1.0000e+00
       13  1    4    4    0    0 +6.1700928846e+00 +1.6963408577e+00 +1.2432344312e+01 1.3982517785e+01 0.0000000000e+00 0.0000e+00 1.0000e+00
      -11  1    5    5    0    0 -6.4058483848e+00 +1.1106527189e+01 +2.0393057694e+01 2.4088724371e+01 0.0000000000e+00 0.0000e+00 1.0000e+00
       13  1    5    5    0    0 +4.0029502694e+01 -2.0912656563e+00 +7.6485866444e+01 8.6352893661e+01 0.0000000000e+00 0.0000e+00 1.0000e+00
<mgrwt>
<rscale>  0 0.12500071E+03</rscale>
<asrwt>0</asrwt>
<pdfrwt beam="1">  1       21 0.11011778E+00 0.12500071E+03</pdfrwt>
<pdfrwt beam="2">  1       21 0.22171115E-02 0.12500071E+03</pdfrwt>
<totfact> 0.68480526E+05</totfact>
</mgrwt>
</event>
<event>
 9      1 +9.5563000e+06 1.25004900e+02 7.81860800e-03 1.23506200e-01
       21 -1    0    0  502  501 +0.0000000000e+00 +0.0000000000e+00 +2.7109545618e+01 2.7109545618e+01 0.0000000000e+00 0.0000e+00 1.0000e+00
       21 -1    0    0  501  502 -0.0000000000e+00 -0.0000000000e+00 -1.4410259520e+02 1.4410259520e+02 0.0000000000e+00 0.0000e+00 1.0000e+00
       25  2    1    2    0    0 +0.0000000000e+00 -7.1054273576e-15 -1.1699304958e+02 1.7121214082e+02 1.2500489396e+02 0.0000e+00 0.0000e+00
  9000006  2    3    3    0    0 -2.3512177611e+01 -2.7322867227e+01 -1.5029073980e+01 5.5903798111e+01 4.0000000113e+01 0.0000e+00 0.0000e+00
  9000006  2    3    3    0    0 +2.3512177611e+01 +2.7322867227e+01 -1.0196397560e+02 1.1530834270e+02 4.0000000099e+01 0.0000e+00 0.0000e+00
      -11  1    4    4    0    0 +1.1435384627e+01 -6.6813480383e+00 -3.1641650534e+00 1.3616914983e+01 0.0000000000e+00 0.0000e+00 1.0000e+00
       13  1    4    4    0    0 -3.4947562238e+01 -2.0641519189e+01 -1.1864908927e+01 4.2286883128e+01 0.0000000000e+00 0.0000e+00 1.0000e+00
      -11  1    5    5    0    0 +2.4164958832e+01 +2.8262104387e+01 -1.0535769301e+02 1.1172705695e+02 0.0000000000e+00 0.0000e+00 1.0000e+00
       13  1    5    5    0    0 -6.5278122108e-01 -9.3923716002e-01 +3.3937174097e+00 3.5812857499e+00 0.0000000000e+00 0.0000e+00 1.0000e+00
<mgrwt>
<rscale>  0 0.12500489E+03</rscale>
<asrwt>0</asrwt>
<pdfrwt beam="1">  1       21 0.67773865E-02 0.12500489E+03</pdfrwt>
<pdfrwt beam="2">  1       21 0.36025648E-01 0.12500489E+03</pdfrwt>
<totfact> 0.11876695E+06</totfact>
</mgrwt>
</event>
<event>
 9      1 +9.5563000e+06 1.25004100e+02 7.81860800e-03 1.23506300e-01
       21 -1    0    0  502  501 +0.0000000000e+00 +0.0000000000e+00 +6.3104601838e+01 6.3104601838e+01 0.0000000000e+00 0.0000e+00 -1.0000e+00
       21 -1    0    0  501  502 -0.0000000000e+00 -0.0000000000e+00 -6.1905209247e+01 6.1905209247e+01 0.0000000000e+00 0.0000e+00 -1.0000e+00
       25  2    1    2    0    0 -1.7763568394e-15 +8.8817841970e-16 +1.1993925912e+00 1.2500981109e+02 1.2500405723e+02 0.0000e+00 0.0000e+00
  9000006  2    3    3    0    0 -1.5809288363e+01 +2.7120619390e+00 +4.5870032496e+01 6.2939246611e+01 4.0000000053e+01 0.0000e+00 0.0000e+00
  9000006  2    3    3    0    0 +1.5809288363e+01 -2.7120619390e+00 -4.4670639905e+01 6.2070564475e+01 4.0000000327e+01 0.0000e+00 0.0000e+00
      -11  1    4    4    0    0 +1.2498275724e+01 -4.3406921443e+00 +1.9808393889e+01 2.3820599758e+01 0.0000000000e+00 0.0000e+00 1.0000e+00
       13  1    4    4    0    0 -2.8307564087e+01 +7.0527540833e+00 +2.6061638607e+01 3.9118646853e+01 0.0000000000e+00 0.0000e+00 1.0000e+00
      -11  1    5    5    0    0 -4.3582323262e-01 -9.2360047226e+00 -4.3558570276e+01 4.4529122714e+01 0.0000000000e+00 0.0000e+00 1.0000e+00
       13  1    5    5    0    0 +1.6245111595e+01 +6.5239427836e+00 -1.1120696286e+00 1.7541441761e+01 0.0000000000e+00 0.0000e+00 1.0000e+00
<mgrwt>
<rscale>  0 0.12500406E+03</rscale>
<asrwt>0</asrwt>
<pdfrwt beam="1">  1       21 0.15776150E-01 0.12500406E+03</pdfrwt>
<pdfrwt beam="2">  1       21 0.15476302E-01 0.12500406E+03</pdfrwt>
<totfact> 0.13224963E+06</totfact>
</mgrwt>
</event>
<event>
 9      1 +9.5563000e+06 1.24999800e+02 7.81860800e-03 1.23507000e-01
       21 -1    0    0  502  501 +0.0000000000e+00 +0.0000000000e+00 +6.1185993831e+01 6.1185993831e+01 0.0000000000e+00 0.0000e+00 1.0000e+00
       21 -1    0    0  501  502 -0.0000000000e+00 -0.0000000000e+00 -6.3842067391e+01 6.3842067391e+01 0.0000000000e+00 0.0000e+00 1.0000e+00
       25  2    1    2    0    0 +7.1054273576e-15 +1.1102230246e-15 -2.6560735601e+00 1.2502806122e+02 1.2499984546e+02 0.0000e+00 0.0000e+00
  9000006  2    3    3    0    0 -4.4412247883e+01 -1.6456053767e+00 +1.6871801885e+01 6.2127397141e+01 3.9999999970e+01 0.0000e+00 0.0000e+00
  9000006  2    3    3    0    0 +4.4412247883e+01 +1.6456053767e+00 -1.9527875445e+01 6.2900664081e+01 3.9999998041e+01 0.0000e+00 0.0000e+00
      -11  1    5    5    0    0 +3.9120317417e+01 +1.3083312191e+01 -2.5972650894e+01 4.8745778146e+01 0.0000000000e+00 0.0000e+00 1.0000e+00
       13  1    4    4    0    0 -4.7012286331e+01 +1.1699169400e+00 +2.4914015471e+01 5.3218717935e+01 0.0000000000e+00 0.0000e+00 1.0000e+00
      -11  1    4    4    0    0 +2.6000384476e+00 -2.8155223167e+00 -8.0422135861e+00 8.9086792068e+00 0.0000000000e+00 0.0000e+00 1.0000e+00
       13  1    5    5    0    0 +5.2919304665e+00 -1.1437706814e+01 +6.4447754482e+00 1.4154885934e+01 0.0000000000e+00 0.0000e+00 1.0000e+00
<mgrwt>
<rscale>  0 0.12499985E+03</rscale>
<asrwt>0</asrwt>
<pdfrwt beam="1">  1       21 0.15296498E-01 0.12499985E+03</pdfrwt>
<pdfrwt beam="2">  1       21 0.15960517E-01 0.12499985E+03</pdfrwt>
<totfact> 0.13225868E+06</totfact>
</mgrwt>
</event>
<event>
 9      1 +9.5563000e+06 1.25003900e+02 7.81860800e-03 1.23506300e-01
       21 -1    0    0  502  501 +0.0000000000e+00 +0.0000000000e+00 +5.4278742454e+01 5.4278742454e+01 0.0000000000e+00 0.0000e+00 1.0000e+00
       21 -1    0    0  501  502 -0.0000000000e+00 -0.0000000000e+00 -7.1970982100e+01 7.1970982100e+01 0.0000000000e+00 0.0000e+00 1.0000e+00
       25  2    1    2    0    0 +0.0000000000e+00 +0.0000000000e+00 -1.7692239646e+01 1.2624972455e+02 1.2500391036e+02 0.0000e+00 0.0000e+00
  9000006  2    3    3    0    0 -5.2854260935e+00 -2.9744409471e+01 +2.8859974866e+01 5.7840848761e+01 4.0000000154e+01 0.0000e+00 0.0000e+00
  9000006  2    3    3    0    0 +5.2854260935e+00 +2.9744409471e+01 -4.6552214512e+01 6.8408875793e+01 3.9999999844e+01 0.0000e+00 0.0000e+00
      -11  1    4    4    0    0 -1.1545985432e+01 +4.5548351458e+00 +1.6925796759e+01 2.0989018527e+01 0.0000000000e+00 0.0000e+00 1.0000e+00
       13  1    4    4    0    0 +6.2605593385e+00 -3.4299244616e+01 +1.1934178108e+01 3.6851830234e+01 0.0000000000e+00 0.0000e+00 1.0000e+00
      -11  1    5    5    0    0 +4.2779483349e+00 +2.6586003740e+01 -5.8299075436e+00 2.7551846740e+01 0.0000000000e+00 0.0000e+00 1.0000e+00
       13  1    5    5    0    0 +1.0074777586e+00 +3.1584057304e+00 -4.0722306969e+01 4.0857029053e+01 0.0000000000e+00 0.0000e+00 1.0000e+00
<mgrwt>
<rscale>  0 0.12500391E+03</rscale>
<asrwt>0</asrwt>
<pdfrwt beam="1">  1       21 0.13569686E-01 0.12500391E+03</pdfrwt>
<pdfrwt beam="2">  1       21 0.17992745E-01 0.12500391E+03</pdfrwt>
<totfact> 0.13186526E+06</totfact>
</mgrwt>
</event>
<event>
 9      1 +9.5563000e+06 1.25023900e+02 7.81860800e-03 1.23503200e-01
       21 -1    0    0  502  501 +0.0000000000e+00 +0.0000000000e+00 +2.2238788093e+02 2.2238788093e+02 0.0000000000e+00 0.0000e+00 -1.0000e+00
       21 -1    0    0  501  502 -0.0000000000e+00 -0.0000000000e+00 -1.7571760187e+01 1.7571760187e+01 0.0000000000e+00 0.0000e+00 -1.0000e+00
       25  2    1    2    0    0 +8.8817841970e-16 +0.0000000000e+00 +2.0481612074e+02 2.3995964112e+02 1.2502394190e+02 0.0000e+00 0.0000e+00
  9000006  2    3    3    0    0 -6.2002204119e-01 -3.0565979139e+01 +3.1287788187e+01 5.9275536291e+01 4.0000000061e+01 0.0000e+00 0.0000e+00
  9000006  2    3    3    0    0 +6.2002204119e-01 +3.0565979139e+01 +1.7352833256e+02 1.8068410483e+02 4.0000000363e+01 0.0000e+00 0.0000e+00
      -11  1    4    4    0    0 +4.1917764358e+00 -2.9056236877e+01 +3.9755404588e+01 4.9419915875e+01 0.0000000000e+00 0.0000e+00 1.0000e+00
       13  1    4    4    0    0 -4.8117984770e+00 -1.5097422616e+00 -8.4676164003e+00 9.8556204159e+00 0.0000000000e+00 0.0000e+00 1.0000e+00
      -11  1    5    5    0    0 -1.1488581544e+01 -3.6827237756e+00 +6.8419803383e+01 6.9475315439e+01 0.0000000000e+00 0.0000e+00 1.0000e+00
       13  1    5    5    0    0 +1.2108603585e+01 +3.4248702915e+01 +1.0510852917e+02 1.1120878939e+02 0.0000000000e+00 0.0000e+00 1.0000e+00
<mgrwt>
<rscale>  0 0.12502394E+03</rscale>
<asrwt>0</asrwt>
<pdfrwt beam="1">  1       21 0.55596961E-01 0.12502394E+03</pdfrwt>
<pdfrwt beam="2">  1       21 0.43929407E-02 0.12502394E+03</pdfrwt>
<totfact> 0.10226615E+06</totfact>
</mgrwt>
</event>
<event>
 9      1 +9.5563000e+06 1.25005600e+02 7.81860800e-03 1.23506000e-01
       21 -1    0    0  502  501 +0.0000000000e+00 +0.0000000000e+00 +1.8302436784e+01 1.8302436784e+01 0.0000000000e+00 0.0000e+00 -1.0000e+00
       21 -1    0    0  501  502 -0.0000000000e+00 -0.0000000000e+00 -2.1344707732e+02 2.1344707732e+02 0.0000000000e+00 0.0000e+00 -1.0000e+00
       25  2    1    2    0    0 +0.0000000000e+00 -1.7763568394e-15 -1.9514464054e+02 2.3174951411e+02 1.2500562610e+02 0.0000e+00 0.0000e+00
  9000006  2    3    3    0    0 +2.6204771598e+01 -5.1198473101e+00 -1.7158265836e+02 1.7819515018e+02 4.0000000095e+01 0.0000e+00 0.0000e+00
  9000006  2    3    3    0    0 -2.6204771598e+01 +5.1198473101e+00 -2.3561982181e+01 5.3554363927e+01 4.0000000004e+01 0.0000e+00 0.0000e+00
      -11  1    5    5    0    0 -2.6812173548e+01 +4.1793615942e+00 +2.6987128844e+00 2.7269814171e+01 0.0000000000e+00 0.0000e+00 1.0000e+00
       13  1    4    4    0    0 +1.4413616502e+01 +9.4488079342e+00 -1.4287639112e+02 1.4391211016e+02 0.0000000000e+00 0.0000e+00 1.0000e+00
      -11  1    4    4    0    0 +1.1791155096e+01 -1.4568655244e+01 -2.8706267239e+01 3.4283040019e+01 0.0000000000e+00 0.0000e+00 1.0000e+00
       13  1    5    5    0    0 +6.0740194999e-01 +9.4048571583e-01 -2.6260695066e+01 2.6284549755e+01 0.0000000000e+00 0.0000e+00 1.0000e+00
<mgrwt>
<rscale>  0 0.12500563E+03</rscale>
<asrwt>0</asrwt>
<pdfrwt beam="1">  1       21 0.45756092E-02 0.12500563E+03</pdfrwt>
<pdfrwt beam="2">  1       21 0.53361769E-01 0.12500563E+03</pdfrwt>
<totfact> 0.10408916E+06</totfact>
</mgrwt>
</event>
<event>
 9      1 +9.5563000e+06 1.25002500e+02 7.81860800e-03 1.23506500e-01
       21 -1    0    0  502  501 +0.0000000000e+00 +0.0000000000e+00 +5.8675715845e+01 5.8675715845e+01 0.0000000000e+00 0.0000e+00 1.0000e+00
       21 -1    0    0  501  502 -0.0000000000e+00 -0.0000000000e+00 -6.6576238793e+01 6.6576238793e+01 0.0000000000e+00 0.0000e+00 1.0000e+00
       25  2    1    2    0    0 +1.7763568394e-15 +0.0000000000e+00 -7.9005229472e+00 1.2525195464e+02 1.2500253549e+02 0.0000e+00 0.0000e+00
  9000006  2    3    3    0    0 -6.9231843449e+00 -3.2964608845e+01 +3.0349788883e+01 6.0462431335e+01 4.0000000000e+01 0.0000e+00 0.0000e+00
  9000006  2    3    3    0    0 +6.9231843449e+00 +3.2964608845e+01 -3.8250311830e+01 6.4789523302e+01 4.0000000711e+01 0.0000e+00 0.0000e+00
      -11  1    5    5    0    0 -1.4573320902e+01 +1.6429905656e+01 -2.8477546887e+01 3.5962399234e+01 0.0000000000e+00 0.0000e+00 1.0000e+00
       13  1    4    4    0    0 -1.5035936638e+01 +2.0977303835e+00 +1.4983919910e+01 2.1330675545e+01 0.0000000000e+00 0.0000e+00 1.0000e+00
      -11  1    4    4    0    0 +8.1127522932e+00 -3.5062339228e+01 +1.5365868974e+01 3.9131755791e+01 0.0000000000e+00 0.0000e+00 1.0000e+00
       13  1    5    5    0    0 +2.1496505247e+01 +1.6534703189e+01 -9.7727649434e+00 2.8827124068e+01 0.0000000000e+00 0.0000e+00 1.0000e+00
<mgrwt>
<rscale>  0 0.12500254E+03</rscale>
<asrwt>0</asrwt>
<pdfrwt beam="1">  1       21 0.14668929E-01 0.12500254E+03</pdfrwt>
<pdfrwt beam="2">  1       21 0.16644060E-01 0.12500254E+03</pdfrwt>
<totfact> 0.13217971E+06</totfact>
</mgrwt>
</event>
<event>
 9      1 +9.5563000e+06 1.24999300e+02 7.81860800e-03 1.23507000e-01
       21 -1    0    0  502  501 +0.0000000000e+00 +0.0000000000e+00 +7.2291587545e+02 7.2291587545e+02 0.0000000000e+00 0.0000e+00 1.0000e+00
       21 -1    0    0  501  502 -0.0000000000e+00 -0.0000000000e+00 -5.4034022606e+00 5.4034022606e+00 0.0000000000e+00 0.0000e+00 1.0000e+00
       25  2    1    2    0    0 +3.5527136788e-15 +0.0000000000e+00 +7.1751247319e+02 7.2831927771e+02 1.2499928441e+02 0.0000e+00 0.0000e+00
  9000006  2    3    3    0    0 +2.7734384765e+01 -3.6474941101e+01 +4.4250273735e+02 4.4666350874e+02 4.0000000550e+01 0.0000e+00 0.0000e+00
  9000006  2    3    3    0    0 -2.7734384765e+01 +3.6474941101e+01 +2.7500973584e+02 2.8165576898e+02 3.9999999573e+01 0.0000e+00 0.0000e+00
      -11  1    5    5    0    0 -1.3884927599e+01 +2.5153492280e+01 +6.7289116929e+01 7.3166349132e+01 0.0000000000e+00 0.0000e+00 1.0000e+00
       13  1    4    4    0    0 +3.1028160466e+01 -2.8448691835e+01 +4.2548032387e+02 4.2755769296e+02 0.0000000000e+00 0.0000e+00 1.0000e+00
      -11  1    4    4    0    0 -3.2937757010e+00 -8.0262492654e+00 +1.7022413485e+01 1.9105815777e+01 0.0000000000e+00 0.0000e+00 1.0000e+00
       13  1    5    5    0    0 -1.3849457166e+01 +1.1321448821e+01 +2.0772061891e+02 2.0848941984e+02 0.0000000000e+00 0.0000e+00 1.0000e+00
<mgrwt>
<rscale>  0 0.12499928E+03</rscale>
<asrwt>0</asrwt>
<pdfrwt beam="1">  1       21 0.18072864E+00 0.12499928E+03</pdfrwt>
<pdfrwt beam="2">  1       21 0.13508530E-02 0.12499928E+03</pdfrwt>
<totfact> 0.42799178E+05</totfact>
</mgrwt>
</event>
<event>
 9      1 +9.5563000e+06 1.25002700e+02 7.81860800e-03 1.23506500e-01
       21 -1    0    0  502  501 +0.0000000000e+00 +0.0000000000e+00 +5.4186982316e+01 5.4186982316e+01 0.0000000000e+00 0.0000e+00 1.0000e+00
       21 -1    0    0  501  502 -0.0000000000e+00 -0.0000000000e+00 -7.2091457730e+01 7.2091457730e+01 0.0000000000e+00 0.0000e+00 1.0000e+00
       25  2    1    2    0    0 +3.5527136788e-15 +0.0000000000e+00 -1.7904475415e+01 1.2627844005e+02 1.2500269669e+02 0.0000e+00 0.0000e+00
  9000006  2    3    3    0    0 +2.2223722821e+01 -3.8046810658e+01 +1.0346787403e+01 6.0402894537e+01 4.0000000020e+01 0.0000e+00 0.0000e+00
  9000006  2    3    3    0    0 -2.2223722821e+01 +3.8046810658e+01 -2.8251262818e+01 6.5875545509e+01 3.9999999849e+01 0.0000e+00 0.0000e+00
      -11  1    5    5    0    0 -3.1412503826e+01 +3.6830792472e+01 -2.9241872644e+01 5.6553866238e+01 0.0000000000e+00 0.0000e+00 1.0000e+00
       13  1    4    4    0    0 -2.4855296742e+00 +4.6319158873e+00 +9.7580418019e+00 1.1083856836e+01 0.0000000000e+00 0.0000e+00 1.0000e+00
      -11  1    4    4    0    0 +2.4709252495e+01 -4.2678726546e+01 +5.8874560114e-01 4.9319037702e+01 0.0000000000e+00 0.0000e+00 1.0000e+00
       13  1    5    5    0    0 +9.1887810051e+00 +1.2160181859e+00 +9.9060982632e-01 9.3216792702e+00 0.0000000000e+00 0.0000e+00 1.0000e+00
<mgrwt>
<rscale>  0 0.12500270E+03</rscale>
<asrwt>0</asrwt>
<pdfrwt beam="1">  1       21 0.13546746E-01 0.12500270E+03</pdfrwt>
<pdfrwt beam="2">  1       21 0.18022864E-01 0.12500270E+03</pdfrwt>
<totfact> 0.13186058E+06</totfact>
</mgrwt>
</event>
<event>
 9      1 +9.5563000e+06 1.24959700e+02 7.81860800e-03 1.23513200e-01
       21 -1    0    0  502  501 +0.0000000000e+00 +0.0000000000e+00 +5.5582448892e+01 5.5582448892e+01 0.0000000000e+00 0.0000e+00 -1.0000e+00
       21 -1    0    0  501  502 -0.0000000000e+00 -0.0000000000e+00 -7.0233186181e+01 7.0233186181e+01 0.0000000000e+00 0.0000e+00 -1.0000e+00
       25  2    1    2    0    0 +0.0000000000e+00 +0.0000000000e+00 -1.4650737289e+01 1.2581563507e+02 1.2495971321e+02 0.0000e+00 0.0000e+00
  9000006  2    3    3    0    0 +6.3340007949e-01 -2.2744144332e+01 +3.5225614549e+01 5.7952922446e+01 4.0000000032e+01 0.0000e+00 0.0000e+00
  9000006  2    3    3    0    0 -6.3340007949e-01 +2.2744144332e+01 -4.9876351837e+01 6.7862712627e+01 3.9999999942e+01 0.0000e+00 0.0000e+00
      -11  1    4    4    0    0 -4.6543080281e+00 +1.0852713042e+01 +1.1512383227e+01 1.6491783747e+01 0.0000000000e+00 0.0000e+00 1.0000e+00
       13  1    4    4    0    0 +5.2877081076e+00 -3.3596857374e+01 +2.3713231321e+01 4.1461138698e+01 0.0000000000e+00 0.0000e+00 1.0000e+00
      -11  1    5    5    0    0 -1.9452226132e+01 +4.9165404899e+00 -2.3022300901e+01 3.0538300717e+01 0.0000000000e+00 0.0000e+00 1.0000e+00
       13  1    5    5    0    0 +1.8818826052e+01 +1.7827603843e+01 -2.6854050936e+01 3.7324411910e+01 0.0000000000e+00 0.0000e+00 1.0000e+00
<mgrwt>
<rscale>  0 0.12495971E+03</rscale>
<asrwt>0</asrwt>
<pdfrwt beam="1">  1       21 0.13895612E-01 0.12495971E+03</pdfrwt>
<pdfrwt beam="2">  1       21 0.17558296E-01 0.12495971E+03</pdfrwt>
<totfact> 0.13215411E+06</totfact>
</mgrwt>
</event>
<event>
 9      1 +9.5563000e+06 1.24999000e+02 7.81860800e-03 1.23507100e-01
       21 -1    0    0  502  501 +0.0000000000e+00 +0.0000000000e+00 +4.4217047974e+01 4.4217047974e+01 0.0000000000e+00 0.0000e+00 -1.0000e+00
       21 -1    0    0  501  502 -0.0000000000e+00 -0.0000000000e+00 -8.8341212017e+01 8.8341212017e+01 0.0000000000e+00 0.0000e+00 -1.0000e+00
       25  2    1    2    0    0 +1.7763568394e-15 +0.0000000000e+00 -4.4124164043e+01 1.3255825999e+02 1.2499900175e+02 0.0000e+00 0.0000e+00
  9000006  2    3    3    0    0 -7.1845067076e+00 -4.0946295349e+01 +3.4328237194e+00 5.7792737558e+01 3.9999999954e+01 0.0000e+00 0.0000e+00
  9000006  2    3    3    0    0 +7.1845067076e+00 +4.0946295349e+01 -4.7556987763e+01 7.4765522433e+01 4.0000000253e+01 0.0000e+00 0.0000e+00
      -11  1    4    4    0    0 +1.1839083068e+01 -6.2680476160e+00 +1.1227163541e+01 1.7478601488e+01 0.0000000000e+00 0.0000e+00 1.0000e+00
       13  1    4    4    0    0 -1.9023589775e+01 -3.4678247733e+01 -7.7943398221e+00 4.0314136070e+01 0.0000000000e+00 0.0000e+00 1.0000e+00
      -11  1    5    5    0    0 -1.1146613391e+01 +1.9626633993e+01 -3.9538884444e+01 4.5527740280e+01 0.0000000000e+00 0.0000e+00 1.0000e+00
       13  1    5    5    0    0 +1.8331120099e+01 +2.1319661356e+01 -8.0181033191e+00 2.9237782153e+01 0.0000000000e+00 0.0000e+00 1.0000e+00
<mgrwt>
<rscale>  0 0.12499900E+03</rscale>
<asrwt>0</asrwt>
<pdfrwt beam="1">  1       21 0.11054262E-01 0.12499900E+03</pdfrwt>
<pdfrwt beam="2">  1       21 0.22085303E-01 0.12499900E+03</pdfrwt>
<totfact> 0.12990305E+06</totfact>
</mgrwt>
</event>
<event>
 9      1 +9.5563000e+06 1.24998600e+02 7.81860800e-03 1.23507100e-01
       21 -1    0    0  502  501 +0.0000000000e+00 +0.0000000000e+00 +2.7744149422e+01 2.7744149422e+01 0.0000000000e+00 0.0000e+00 -1.0000e+00
       21 -1    0    0  501  502 -0.0000000000e+00 -0.0000000000e+00 -1.4079233272e+02 1.4079233272e+02 0.0000000000e+00 0.0000e+00 -1.0000e+00
       25  2    1    2    0    0 +0.0000000000e+00 +0.0000000000e+00 -1.1304818330e+02 1.6853648214e+02 1.2499861626e+02 0.0000e+00 0.0000e+00
  9000006  2    3    3    0    0 -1.9749168961e+01 +2.1394770670e+01 -5.0336406446e+00 4.9730306965e+01 4.0000000075e+01 0.0000e+00 0.0000e+00
  9000006  2    3    3    0    0 +1.9749168961e+01 -2.1394770670e+01 -1.0801454265e+02 1.1880617518e+02 3.9999999360e+01 0.0000e+00 0.0000e+00
      -11  1    5    5    0    0 +6.9825221095e+00 -2.3367655948e+01 -2.5495352778e+01 3.5281949673e+01 0.0000000000e+00 0.0000e+00 1.0000e+00
       13  1    4    4    0    0 -2.2257775882e+01 +1.0310850171e+01 +1.3492856107e+01 2.7996060159e+01 0.0000000000e+00 0.0000e+00 1.0000e+00
      -11  1    4    4    0    0 +2.5086069211e+00 +1.1083920499e+01 -1.8526496752e+01 2.1734246806e+01 0.0000000000e+00 0.0000e+00 1.0000e+00
       13  1    5    5    0    0 +1.2766646852e+01 +1.9728852775e+00 -8.2519189876e+01 8.3524225504e+01 0.0000000000e+00 0.0000e+00 1.0000e+00
<mgrwt>
<rscale>  0 0.12499862E+03</rscale>
<asrwt>0</asrwt>
<pdfrwt beam="1">  1       21 0.69360375E-02 0.12499862E+03</pdfrwt>
<pdfrwt beam="2">  1       21 0.35198083E-01 0.12499862E+03</pdfrwt>
<totfact> 0.11950586E+06</totfact>
</mgrwt>
</event>
<event>
 9      1 +9.5563000e+06 1.24996400e+02 7.81860800e-03 1.23507500e-01
       21 -1    0    0  502  501 +0.0000000000e+00 +0.0000000000e+00 +9.3859551026e+01 9.3859551026e+01 0.0000000000e+00 0.0000e+00 1.0000e+00
       21 -1    0    0  501  502 -0.0000000000e+00 -0.0000000000e+00 -4.1615632722e+01 4.1615632722e+01 0.0000000000e+00 0.0000e+00 1.0000e+00
       25  2    1    2    0    0 +0.0000000000e+00 +7.1054273576e-15 +5.2243918304e+01 1.3547518375e+02 1.2499639359e+02 0.0000e+00 0.0000e+00
  9000006  2    3    3    0    0 +2.2007464457e+01 -3.9493512810e+01 +8.5799811410e+00 6.0972798171e+01 3.9999999931e+01 0.0000e+00 0.0000e+00
  9000006  2    3    3    0    0 -2.2007464457e+01 +3.9493512810e+01 +4.3663937163e+01 7.4502385577e+01 4.0000000028e+01 0.0000e+00 0.0000e+00
      -11  1    5    5    0    0 -6.8196000168e-02 +1.7557980257e+01 +3.9465967389e+01 4.3195484756e+01 0.0000000000e+00 0.0000e+00 1.0000e+00
       13  1    4    4    0    0 +1.8247009774e+00 -2.0819224428e+01 +2.2027244903e+01 3.0363945025e+01 0.0000000000e+00 0.0000e+00 1.0000e+00
      -11  1    4    4    0    0 +2.0182763480e+01 -1.8674288381e+01 -1.3447263762e+01 3.0608853146e+01 0.0000000000e+00 0.0000e+00 1.0000e+00
       13  1    5    5    0    0 -2.1939268457e+01 +2.1935532553e+01 +4.1979697748e+00 3.1306900821e+01 0.0000000000e+00 0.0000e+00 1.0000e+00
<mgrwt>
<rscale>  0 0.12499639E+03</rscale>
<asrwt>0</asrwt>
<pdfrwt beam="1">  1       21 0.23464887E-01 0.12499639E+03</pdfrwt>
<pdfrwt beam="2">  1       21 0.10403908E-01 0.12499639E+03</pdfrwt>
<totfact> 0.12901647E+06</totfact>
</mgrwt>
</event>
<event>
 9      1 +9.5563000e+06 1.25000800e+02 7.81860800e-03 1.23506800e-01
       21 -1    0    0  502  501 +0.0000000000e+00 +0.0000000000e+00 +1.7478539539e+01 1.7478539539e+01 0.0000000000e+00 0.0000e+00 -1.0000e+00
       21 -1    0    0  501  502 -0.0000000000e+00 -0.0000000000e+00 -2.2349136192e+02 2.2349136192e+02 0.0000000000e+00 0.0000e+00 -1.0000e+00
       25  2    1    2    0    0 +8.8817841970e-16 +1.7763568394e-15 -2.0601282238e+02 2.4096990146e+02 1.2500084169e+02 0.0000e+00 0.0000e+00
  9000006  2    3    3    0    0 -6.4823805486e+00 +1.0260410885e+01 -1.9257932848e+02 1.9706368272e+02 3.9999999997e+01 0.0000e+00 0.0000e+00
  9000006  2    3    3    0    0 +6.4823805486e+00 -1.0260410885e+01 -1.3433493901e+01 4.3906218740e+01 3.9999999957e+01 0.0000e+00 0.0000e+00
      -11  1    4    4    0    0 -4.2563939660e+00 -1.5132571371e+01 -5.8054027812e+01 6.0144673506e+01 0.0000000000e+00 0.0000e+00 1.0000e+00
       13  1    4    4    0    0 -2.2259865826e+00 +2.5392982256e+01 -1.3452530067e+02 1.3691900921e+02 0.0000000000e+00 0.0000e+00 1.0000e+00
      -11  1    5    5    0    0 -1.3289415764e+01 +7.4278900181e+00 -3.8996125255e+00 1.5715886845e+01 0.0000000000e+00 0.0000e+00 1.0000e+00
       13  1    5    5    0    0 +1.9771796313e+01 -1.7688300903e+01 -9.5338813752e+00 2.8190331895e+01 0.0000000000e+00 0.0000e+00 1.0000e+00
<mgrwt>
<rscale>  0 0.12500084E+03</rscale>
<asrwt>0</asrwt>
<pdfrwt beam="1">  1       21 0.43696349E-02 0.12500084E+03</pdfrwt>
<pdfrwt beam="2">  1       21 0.55872840E-01 0.12500084E+03</pdfrwt>
<totfact> 0.10211250E+06</totfact>
</mgrwt>
</event>
<event>
 9      1 +9.5563000e+06 1.25000500e+02 7.81860800e-03 1.23506800e-01
       21 -1    0    0  502  501 +0.0000000000e+00 +0.0000000000e+00 +6.0064358801e+02 6.0064358801e+02 0.0000000000e+00 0.0000e+00 1.0000e+00
       21 -1    0    0  501  502 -0.0000000000e+00 -0.0000000000e+00 -6.5034965010e+00 6.5034965010e+00 0.0000000000e+00 0.0000e+00 1.0000e+00
       25  2    1    2    0    0 +1.7763568394e-15 -7.1054273576e-15 +5.9414009151e+02 6.0714708452e+02 1.2500053557e+02 0.0000e+00 0.0000e+00
  9000006  2    3    3    0    0 +1.4229766627e+00 +4.1029481953e+01 +1.7604591798e+02 1.8514213052e+02 4.0000000069e+01 0.0000e+00 0.0000e+00
  9000006  2    3    3    0    0 -1.4229766627e+00 -4.1029481953e+01 +4.1809417353e+02 4.2200495399e+02 3.9999999989e+01 0.0000e+00 0.0000e+00
      -11  1    4    4    0    0 +1.1754042179e+01 +4.5042200788e+00 +1.4522082319e+01 1.9218126364e+01 0.0000000000e+00 0.0000e+00 1.0000e+00
       13  1    4    4    0    0 -1.0331065516e+01 +3.6525261874e+01 +1.6152383566e+02 1.6592400416e+02 0.0000000000e+00 0.0000e+00 1.0000e+00
      -11  1    5    5    0    0 -1.2576427526e+01 -6.7623708743e+00 +4.5888172780e+01 4.8058512152e+01 0.0000000000e+00 0.0000e+00 1.0000e+00
       13  1    5    5    0    0 +1.1153450864e+01 -3.4267111079e+01 +3.7220600075e+02 3.7394644184e+02 0.0000000000e+00 0.0000e+00 1.0000e+00
<mgrwt>
<rscale>  0 0.12500054E+03</rscale>
<asrwt>0</asrwt>
<pdfrwt beam="1">  1       21 0.15016071E+00 0.12500054E+03</pdfrwt>
<pdfrwt beam="2">  1       21 0.16258762E-02 0.12500054E+03</pdfrwt>
<totfact> 0.52257494E+05</totfact>
</mgrwt>
</event>
<event>
 9      1 +9.5563000e+06 1.24999000e+02 7.81860800e-03 1.23507100e-01
       21 -1    0    0  502  501 +0.0000000000e+00 +0.0000000000e+00 +2.2120766153e+01 2.2120766153e+01 0.0000000000e+00 0.0000e+00 1.0000e+00
       21 -1    0    0  501  502 -0.0000000000e+00 -0.0000000000e+00 -1.7658475938e+02 1.7658475938e+02 0.0000000000e+00 0.0000e+00 1.0000e+00
       25  2    1    2    0    0 +0.0000000000e+00 +0.0000000000e+00 -1.5446399323e+02 1.9870552554e+02 1.2499904269e+02 0.0000e+00 0.0000e+00
  9000006  2    3    3    0    0 +3.6672478500e+01 -2.5564184074e+01 -4.9343063122e+01 7.7673264802e+01 4.0000000001e+01 0.0000e+00 0.0000e+00
  9000006  2    3    3    0    0 -3.6672478500e+01 +2.5564184074e+01 -1.0512093011e+02 1.2103226073e+02 4.0000000064e+01 0.0000e+00 0.0000e+00
      -11  1    4    4    0    0 +6.7981094714e+00 -2.0258400620e+01 -4.0953094754e+01 4.6192781449e+01 0.0000000000e+00 0.0000e+00 1.0000e+00
       13  1    4    4    0    0 +2.9874369029e+01 -5.3057834532e+00 -8.3899683682e+00 3.1480483353e+01 0.0000000000e+00 0.0000e+00 1.0000e+00
      -11  1    5    5    0    0 -3.5912095702e+01 +3.2722078504e+01 -1.0239278762e+02 1.1333444312e+02 0.0000000000e+00 0.0000e+00 1.0000e+00
       13  1    5    5    0    0 -7.6038279805e-01 -7.1578944301e+00 -2.7281424855e+00 7.6978176189e+00 0.0000000000e+00 0.0000e+00 1.0000e+00
<mgrwt>
<rscale>  0 0.12499904E+03</rscale>
<asrwt>0</asrwt>
<pdfrwt beam="1">  1       21 0.55301916E-02 0.12499904E+03</pdfrwt>
<pdfrwt beam="2">  1       21 0.44146189E-01 0.12499904E+03</pdfrwt>
<totfact> 0.11175131E+06</totfact>
</mgrwt>
</event>
<event>
 8      1 +9.5563000e+06 1.24937500e+02 7.81860800e-03 1.23516700e-01
       21 -1    0    0  502  501 +0.0000000000e+00 +0.0000000000e+00 +1.6115417694e+02 1.6115417694e+02 0.0000000000e+00 0.0000e+00 -1.0000e+00
       21 -1    0    0  501  502 -0.0000000000e+00 -0.0000000000e+00 -2.4214983386e+01 2.4214983386e+01 0.0000000000e+00 0.0000e+00 -1.0000e+00
       25  2    1    2    0    0 -1.7763568394e-15 -1.0658141036e-14 +1.3693919356e+02 1.8536916033e+02 1.2493751586e+02 0.0000e+00 0.0000e+00
  9000006  2    3    3    0    0 -6.7747115575e+00 -3.0588889509e+01 +1.4548576013e+01 5.2851092213e+01 4.0000000075e+01 0.0000e+00 0.0000e+00
      -11  1    4    4    0    0 -1.2196013162e+01 -3.8343785122e+01 +7.2116736642e+00 4.0877828117e+01 0.0000000000e+00 0.0000e+00 1.0000e+00
       13  1    4    4    0    0 +5.4213016048e+00 +7.7548956124e+00 +7.3369023483e+00 1.1973264096e+01 0.0000000000e+00 0.0000e+00 1.0000e+00
      -11  1    3    3    0    0 +1.1283427561e+01 +3.4373331766e+00 +8.6441344937e+01 8.7242404320e+01 0.0000000000e+00 0.0000e+00 1.0000e+00
       13  1    3    3    0    0 -4.5087160038e+00 +2.7151556333e+01 +3.5949272608e+01 4.5275663797e+01 0.0000000000e+00 0.0000e+00 1.0000e+00
<mgrwt>
<rscale>  0 0.12493752E+03</rscale>
<asrwt>0</asrwt>
<pdfrwt beam="1">  1       21 0.40288541E-01 0.12493752E+03</pdfrwt>
<pdfrwt beam="2">  1       21 0.60537463E-02 0.12493752E+03</pdfrwt>
<totfact> 0.11527398E+06</totfact>
</mgrwt>
</event>
<event>
 9      1 +9.5563000e+06 1.25002600e+02 7.81860800e-03 1.23506500e-01
       21 -1    0    0  502  501 +0.0000000000e+00 +0.0000000000e+00 +2.8771905984e+02 2.8771905984e+02 0.0000000000e+00 0.0000e+00 1.0000e+00
       21 -1    0    0  501  502 -0.0000000000e+00 -0.0000000000e+00 -1.3577175643e+01 1.3577175643e+01 0.0000000000e+00 0.0000e+00 1.0000e+00
       25  2    1    2    0    0 +0.0000000000e+00 +0.0000000000e+00 +2.7414188419e+02 3.0129623548e+02 1.2500259535e+02 0.0000e+00 0.0000e+00
  9000006  2    3    3    0    0 +1.5065291146e+01 +2.3032319267e+01 +2.3193353366e+02 2.3696120941e+02 4.0000000012e+01 0.0000e+00 0.0000e+00
  9000006  2    3    3    0    0 -1.5065291146e+01 -2.3032319267e+01 +4.2208350532e+01 6.4335026067e+01 3.9999999954e+01 0.0000e+00 0.0000e+00
      -11  1    5    5    0    0 -2.1666077536e+01 -3.1032783999e+01 +2.9859786405e+01 4.8208499693e+01 0.0000000000e+00 0.0000e+00 1.0000e+00
       13  1    4    4    0    0 +2.7535435741e+01 +9.1999547220e+00 +1.1820811828e+02 1.2172098675e+02 0.0000000000e+00 0.0000e+00 1.0000e+00
      -11  1    4    4    0    0 -1.2470144596e+01 +1.3832364545e+01 +1.1372541538e+02 1.1524022266e+02 0.0000000000e+00 0.0000e+00 1.0000e+00
       13  1    5    5    0    0 +6.6007863900e+00 +8.0004647320e+00 +1.2348564127e+01 1.6126526374e+01 0.0000000000e+00 0.0000e+00 1.0000e+00
<mgrwt>
<rscale>  0 0.12500260E+03</rscale>
<asrwt>0</asrwt>
<pdfrwt beam="1">  1       21 0.71929745E-01 0.12500260E+03</pdfrwt>
<pdfrwt beam="2">  1       21 0.33942948E-02 0.12500260E+03</pdfrwt>
<totfact> 0.90336588E+05</totfact>
</mgrwt>
</event>
<event>
 9      1 +9.5563000e+06 1.25012400e+02 7.81860800e-03 1.23505000e-01
       21 -1    0    0  502  501 +0.0000000000e+00 +0.0000000000e+00 +9.1833753037e+01 9.1833753037e+01 0.0000000000e+00 0.0000e+00 1.0000e+00
       21 -1    0    0  501  502 -0.0000000000e+00 -0.0000000000e+00 -4.2544547679e+01 4.2544547679e+01 0.0000000000e+00 0.0000e+00 1.0000e+00
       25  2    1    2    0    0 +1.7763568394e-15 +1.7763568394e-15 +4.9289205358e+01 1.3437830072e+02 1.2501240714e+02 0.0000e+00 0.0000e+00
  9000006  2    3    3    0    0 -7.9761243449e+00 -8.8587472257e+00 +7.4659330427e+01 8.5534271250e+01 3.9999999706e+01 0.0000e+00 0.0000e+00
  9000006  2    3    3    0    0 +7.9761243449e+00 +8.8587472257e+00 -2.5370125069e+01 4.8844029466e+01 4.0000000080e+01 0.0000e+00 0.0000e+00
      -11  1    4    4    0    0 -5.4646942776e+00 -1.2800232929e+01 +3.6732411226e+00 1.4394497106e+01 0.0000000000e+00 0.0000e+00 1.0000e+00
       13  1    4    4    0    0 -2.5114300674e+00 +3.9414857034e+00 +7.0986089305e+01 7.1139774144e+01 0.0000000000e+00 0.0000e+00 1.0000e+00
      -11  1    5    5    0    0 +1.0291844088e+01 -3.5251116994e+00 +7.7840457529e+00 1.3376839519e+01 0.0000000000e+00 0.0000e+00 1.0000e+00
       13  1    5    5    0    0 -2.3157197433e+00 +1.2383858925e+01 -3.3154170822e+01 3.5467189947e+01 0.0000000000e+00 0.0000e+00 1.0000e+00
<mgrwt>
<rscale>  0 0.12501241E+03</rscale>
<asrwt>0</asrwt>
<pdfrwt beam="1">  1       21 0.22958438E-01 0.12501241E+03</pdfrwt>
<pdfrwt beam="2">  1       21 0.10636137E-01 0.12501241E+03</pdfrwt>
<totfact> 0.12929716E+06</totfact>
</mgrwt>
</event>
<event>
 9      1 +9.5563000e+06 1.24999600e+02 7.81860800e-03 1.23507000e-01
       21 -1    0    0  502  501 +0.0000000000e+00 +0.0000000000e+00 +1.0345374943e+02 1.0345374943e+02 0.0000000000e+00 0.0000e+00 1.0000e+00
       21 -1    0    0  501  502 -0.0000000000e+00 -0.0000000000e+00 -3.7758166102e+01 3.7758166102e+01 0.0000000000e+00 0.0000e+00 1.0000e+00
       25  2    1    2    0    0 +1.7763568394e-15 +0.0000000000e+00 +6.5695583325e+01 1.4121191553e+02 1.2499958168e+02 0.0000e+00 0.0000e+00
  9000006  2    3    3    0    0 -1.3431301407e+01 +3.6638158938e+01 +1.2269243626e+00 5.5895079312e+01 4.0000000000e+01 0.0000e+00 0.0000e+00
  9000006  2    3    3    0    0 +1.3431301407e+01 -3.6638158938e+01 +6.4468658963e+01 8.5316836218e+01 4.0000000074e+01 0.0000e+00 0.0000e+00
      -11  1    5    5    0    0 +2.5004158225e+01 -3.5712519393e+01 +5.5886066994e+01 7.0879083332e+01 0.0000000000e+00 0.0000e+00 1.0000e+00
       13  1    4    4    0    0 -2.4424453390e+01 +3.3526778127e+01 -6.6611896032e+00 4.2011548673e+01 0.0000000000e+00 0.0000e+00 1.0000e+00
      -11  1    4    4    0    0 +1.0993151983e+01 +3.1113808117e+00 +7.8881139658e+00 1.3883530639e+01 0.0000000000e+00 0.0000e+00 1.0000e+00
       13  1    5    5    0    0 -1.1572856818e+01 -9.2563954537e-01 +8.5825919692e+00 1.4437752886e+01 0.0000000000e+00 0.0000e+00 1.0000e+00
<mgrwt>
<rscale>  0 0.12499958E+03</rscale>
<asrwt>0</asrwt>
<pdfrwt beam="1">  1       21 0.25863437E-01 0.12499958E+03</pdfrwt>
<pdfrwt beam="2">  1       21 0.94395417E-02 0.12499958E+03</pdfrwt>
<totfact> 0.12727937E+06</totfact>
</mgrwt>
</event>
<event>
 9      1 +9.5563000e+06 1.24998700e+02 7.81860800e-03 1.23507100e-01
       21 -1    0    0  502  501 +0.0000000000e+00 +0.0000000000e+00 +8.2178285176e+01 8.2178285176e+01 0.0000000000e+00 0.0000e+00 1.0000e+00
       21 -1    0    0  501  502 -0.0000000000e+00 -0.0000000000e+00 -4.7532843472e+01 4.7532843472e+01 0.0000000000e+00 0.0000e+00 1.0000e+00
       25  2    1    2    0    0 +0.0000000000e+00 -1.4210854715e-14 +3.4645441704e+01 1.2971112865e+02 1.2499868105e+02 0.0000e+00 0.0000e+00
  9000006  2    3    3    0    0 -1.2568192750e+01 -4.5820702776e+01 +2.4562215456e+01 6.6789210851e+01 3.9999999825e+01 0.0000e+00 0.0000e+00
  9000006  2    3    3    0    0 +1.2568192750e+01 +4.5820702776e+01 +1.0083226247e+01 6.2921917797e+01 4.0000000198e+01 0.0000e+00 0.0000e+00
      -11  1    5    5    0    0 -1.1832527885e+01 +2.0683299214e+00 +1.8802235289e+00 1.2158204856e+01 0.0000000000e+00 0.0000e+00 1.0000e+00
       13  1    4    4    0    0 -7.0802980475e+00 -4.4097555440e+01 +3.3240238168e+00 4.4785869988e+01 0.0000000000e+00 0.0000e+00 1.0000e+00
      -11  1    4    4    0    0 -5.4878947029e+00 -1.7231473361e+00 +2.1238191639e+01 2.2003340863e+01 0.0000000000e+00 0.0000e+00 1.0000e+00
       13  1    5    5    0    0 +2.4400720635e+01 +4.3752372855e+01 +8.2030027185e+00 5.0763712941e+01 0.0000000000e+00 0.0000e+00 1.0000e+00
<mgrwt>
<rscale>  0 0.12499868E+03</rscale>
<asrwt>0</asrwt>
<pdfrwt beam="1">  1       21 0.20544571E-01 0.12499868E+03</pdfrwt>
<pdfrwt beam="2">  1       21 0.11883211E-01 0.12499868E+03</pdfrwt>
<totfact> 0.13079179E+06</totfact>
</mgrwt>
</event>
<event>
 9      1 +9.5563000e+06 1.25014800e+02 7.81860800e-03 1.23504600e-01
       21 -1    0    0  502  501 +0.0000000000e+00 +0.0000000000e+00 +5.6330668539e+01 5.6330668539e+01 0.0000000000e+00 0.0000e+00 -1.0000e+00
       21 -1    0    0  501  502 -0.0000000000e+00 -0.0000000000e+00 -6.9361373246e+01 6.9361373246e+01 0.0000000000e+00 0.0000e+00 -1.0000e+00
       25  2    1    2    0    0 +0.0000000000e+00 +1.7763568394e-15 -1.3030704706e+01 1.2569204178e+02 1.2501475954e+02 0.0000e+00 0.0000e+00
  9000006  2    3    3    0    0 -3.8787673791e+01 +1.3033999574e+01 -3.1807226544e+01 6.5468071861e+01 3.9999999872e+01 0.0000e+00 0.0000e+00
  9000006  2    3    3    0    0 +3.8787673791e+01 -1.3033999574e+01 +1.8776521838e+01 6.0223969924e+01 3.9999999976e+01 0.0000e+00 0.0000e+00
      -11  1    5    5    0    0 -2.6440393339e+00 -1.3005772629e+01 -2.7198140206e+00 1.3547636472e+01 0.0000000000e+00 0.0000e+00 1.0000e+00
       13  1    4    4    0    0 -4.3121992845e+01 +2.0876890837e+01 -2.9315727570e+01 5.6167274466e+01 0.0000000000e+00 0.0000e+00 1.0000e+00
      -11  1    4    4    0    0 +4.3343190546e+00 -7.8428912635e+00 -2.4914989737e+00 9.3007973945e+00 0.0000000000e+00 0.0000e+00 1.0000e+00
       13  1    5    5    0    0 +4.1431713125e+01 -2.8226945382e-02 +2.1496335858e+01 4.6676333452e+01 0.0000000000e+00 0.0000e+00 1.0000e+00
<mgrwt>
<rscale>  0 0.12501476E+03</rscale>
<asrwt>0</asrwt>
<pdfrwt beam="1">  1       21 0.14082667E-01 0.12501476E+03</pdfrwt>
<pdfrwt beam="2">  1       21 0.17340343E-01 0.12501476E+03</pdfrwt>
<totfact> 0.13200043E+06</totfact>
</mgrwt>
</event>
<event>
 9      1 +9.5563000e+06 1.25000500e+02 7.81860800e-03 1.23506900e-01
       21 -1    0    0  502  501 +0.0000000000e+00 +0.0000000000e+00 +2.8720626741e+02 2.8720626741e+02 0.0000000000e+00 0.0000e+00 -1.0000e+00
       21 -1    0    0  501  502 -0.0000000000e+00 -0.0000000000e+00 -1.3600950653e+01 1.3600950653e+01 0.0000000000e+00 0.0000e+00 -1.0000e+00
       25  2    1    2    0    0 +0.0000000000e+00 -7.1054273576e-15 +2.7360531675e+02 3.0080721806e+02 1.2500045232e+02 0.0000e+00 0.0000e+00
  9000006  2    3    3    0    0 -3.6802831738e+01 -3.0809522766e+01 +1.4068527890e+02 1.5393512541e+02 4.0000000222e+01 0.0000e+00 0.0000e+00
  9000006  2    3    3    0    0 +3.6802831738e+01 +3.0809522766e+01 +1.3292003785e+02 1.4687209265e+02 4.0000000253e+01 0.0000e+00 0.0000e+00
      -11  1    4    4    0    0 -4.2077605219e+01 -3.3435278698e+01 +1.3652400434e+02 1.4672166331e+02 0.0000000000e+00 0.0000e+00 1.0000e+00
       13  1    4    4    0    0 +5.2747734808e+00 +2.6257559316e+00 +4.1612745576e+00 7.2134620973e+00 0.0000000000e+00 0.0000e+00 1.0000e+00
      -11  1    5    5    0    0 +1.5414204967e+01 +3.4266534484e+01 +1.0507368751e+02 1.1158975270e+02 0.0000000000e+00 0.0000e+00 1.0000e+00
       13  1    5    5    0    0 +2.1388626771e+01 -3.4570117182e+00 +2.7846350339e+01 3.5282339950e+01 0.0000000000e+00 0.0000e+00 1.0000e+00
<mgrwt>
<rscale>  0 0.12500045E+03</rscale>
<asrwt>0</asrwt>
<pdfrwt beam="1">  1       21 0.71801547E-01 0.12500045E+03</pdfrwt>
<pdfrwt beam="2">  1       21 0.34002386E-02 0.12500045E+03</pdfrwt>
<totfact> 0.90428880E+05</totfact>
</mgrwt>
</event>
<event>
 9      1 +9.5563000e+06 1.24990300e+02 7.81860800e-03 1.23508400e-01
       21 -1    0    0  502  501 +0.0000000000e+00 +0.0000000000e+00 +3.3217341232e+00 3.3217341232e+00 0.0000000000e+00 0.0000e+00 1.0000e+00
       21 -1    0    0  501  502 -0.0000000000e+00 -0.0000000000e+00 -1.1757839302e+03 1.1757839302e+03 0.0000000000e+00 0.0000e+00 1.0000e+00
       25  2    1    2    0    0 -7.1054273576e-15 +0.0000000000e+00 -1.1724621961e+03 1.1791056643e+03 1.2499026526e+02 0.0000e+00 0.0000e+00
  9000006  2    3    3    0    0 -3.4135773824e+01 +3.1871363314e+01 -4.8092650801e+02 4.8484156274e+02 4.0000000060e+01 0.0000e+00 0.0000e+00
  9000006  2    3    3    0    0 +3.4135773824e+01 -3.1871363314e+01 -6.9153568806e+02 6.9426410157e+02 4.0000000188e+01 0.0000e+00 0.0000e+00
      -11  1    4    4    0    0 -8.9013625196e+00 -3.3412120077e+00 -2.3243539884e+01 2.5112946834e+01 0.0000000000e+00 0.0000e+00 1.0000e+00
       13  1    4    4    0    0 -2.5234411305e+01 +3.5212575322e+01 -4.5768296812e+02 4.5972861591e+02 0.0000000000e+00 0.0000e+00 1.0000e+00
      -11  1    5    5    0    0 +4.2690105494e+01 -2.2597392184e+01 -5.8301288246e+02 5.8501034893e+02 0.0000000000e+00 0.0000e+00 1.0000e+00
       13  1    5    5    0    0 -8.5543316695e+00 -9.2739711303e+00 -1.0852280560e+02 1.0925375264e+02 0.0000000000e+00 0.0000e+00 1.0000e+00
<mgrwt>
<rscale>  0 0.12499027E+03</rscale>
<asrwt>0</asrwt>
<pdfrwt beam="1">  1       21 0.83043425E-03 0.12499027E+03</pdfrwt>
<pdfrwt beam="2">  1       21 0.29394573E+00 0.12499027E+03</pdfrwt>
<totfact> 0.19709396E+05</totfact>
</mgrwt>
</event>
<event>
 9      1 +9.5563000e+06 1.24964800e+02 7.81860800e-03 1.23512400e-01
       21 -1    0    0  502  501 +0.0000000000e+00 +0.0000000000e+00 +6.8059180598e+01 6.8059180598e+01 0.0000000000e+00 0.0000e+00 -1.0000e+00
       21 -1    0    0  501  502 -0.0000000000e+00 -0.0000000000e+00 -5.7362542595e+01 5.7362542595e+01 0.0000000000e+00 0.0000e+00 -1.0000e+00
       25  2    1    2    0    0 +0.0000000000e+00 +0.0000000000e+00 +1.0696638003e+01 1.2542172319e+02 1.2496475737e+02 0.0000e+00 0.0000e+00
  9000006  2    3    3    0    0 +2.1988424394e+01 +1.3320587432e+01 -3.5335310370e+01 5.9241142871e+01 3.9999999910e+01 0.0000e+00 0.0000e+00
  9000006  2    3    3    0    0 -2.1988424394e+01 -1.3320587432e+01 +4.6031948373e+01 6.6180580322e+01 4.0000001049e+01 0.0000e+00 0.0000e+00
      -11  1    4    4    0    0 +1.1550562476e+01 -8.9927381194e-01 -3.9460140801e+01 4.1125744965e+01 0.0000000000e+00 0.0000e+00 1.0000e+00
       13  1    4    4    0    0 +1.0437861918e+01 +1.4219861244e+01 +4.1248304306e+00 1.8115397906e+01 0.0000000000e+00 0.0000e+00 1.0000e+00
      -11  1    5    5    0    0 -1.4920525757e+01 -9.8944786248e+00 +5.2837273172e+01 5.5787993622e+01 0.0000000000e+00 0.0000e+00 1.0000e+00
       13  1    5    5    0    0 -7.0678986367e+00 -3.4261088069e+00 -6.8053247993e+00 1.0392586700e+01 0.0000000000e+00 0.0000e+00 1.0000e+00
<mgrwt>
<rscale>  0 0.12496476E+03</rscale>
<asrwt>0</asrwt>
<pdfrwt beam="1">  1       21 0.17014795E-01 0.12496476E+03</pdfrwt>
<pdfrwt beam="2">  1       21 0.14340636E-01 0.12496476E+03</pdfrwt>
<totfact> 0.13225892E+06</totfact>
</mgrwt>
</event>
<event>
 9      1 +9.5563000e+06 1.24993100e+02 7.81860800e-03 1.23508000e-01
       21 -1    0    0  502  501 +0.0000000000e+00 +0.0000000000e+00 +2.6667208951e+01 2.6667208951e+01 0.0000000000e+00 0.0000e+00 -1.0000e+00
       21 -1    0    0  501  502 -0.0000000000e+00 -0.0000000000e+00 -1.4646532538e+02 1.4646532538e+02 0.0000000000e+00 0.0000e+00 -1.0000e+00
       25  2    1    2    0    0 +0.0000000000e+00 +0.0000000000e+00 -1.1979811643e+02 1.7313253433e+02 1.2499314279e+02 0.0000e+00 0.0000e+00
  9000006  2    3    3    0    0 -3.6717786967e+01 -1.1041395082e+01 -1.9856563540e+01 5.8859080911e+01 4.0000000062e+01 0.0000e+00 0.0000e+00
  9000006  2    3    3    0    0 +3.6717786967e+01 +1.1041395082e+01 -9.9941552890e+01 1.1427345342e+02 3.9999998473e+01 0.0000e+00 0.0000e+00
      -11  1    4    4    0    0 -2.7120910519e+01 -2.3334524481e+01 -3.0132279093e+00 3.5904364116e+01 0.0000000000e+00 0.0000e+00 1.0000e+00
       13  1    4    4    0    0 -9.5968764477e+00 +1.2293129399e+01 -1.6843335631e+01 2.2954716795e+01 0.0000000000e+00 0.0000e+00 1.0000e+00
      -11  1    5    5    0    0 +2.9877462781e+01 +1.8231603612e+01 -3.8484581539e+01 5.2020353408e+01 0.0000000000e+00 0.0000e+00 1.0000e+00
       13  1    5    5    0    0 +6.8403241860e+00 -7.1902085304e+00 -6.1456971350e+01 6.2253100013e+01 0.0000000000e+00 0.0000e+00 1.0000e+00
<mgrwt>
<rscale>  0 0.12499314E+03</rscale>
<asrwt>0</asrwt>
<pdfrwt beam="1">  1       21 0.66668024E-02 0.12499314E+03</pdfrwt>
<pdfrwt beam="2">  1       21 0.36616331E-01 0.12499314E+03</pdfrwt>
<totfact> 0.11829153E+06</totfact>
</mgrwt>
</event>
<event>
 9      1 +9.5563000e+06 1.25000900e+02 7.81860800e-03 1.23506800e-01
       21 -1    0    0  502  501 +0.0000000000e+00 +0.0000000000e+00 +9.7359481682e+01 9.7359481682e+01 0.0000000000e+00 0.0000e+00 -1.0000e+00
       21 -1    0    0  501  502 -0.0000000000e+00 -0.0000000000e+00 -4.0122504744e+01 4.0122504744e+01 0.0000000000e+00 0.0000e+00 -1.0000e+00
       25  2    1    2    0    0 +0.0000000000e+00 -1.7763568394e-15 +5.7236976938e+01 1.3748198643e+02 1.2500090025e+02 0.0000e+00 0.0000e+00
  9000006  2    3    3    0    0 +4.3247608631e+01 +1.3993991721e+01 +4.5661476966e+01 7.5836389274e+01 4.0000000035e+01 0.0000e+00 0.0000e+00
  9000006  2    3    3    0    0 -4.3247608631e+01 -1.3993991721e+01 +1.1575499972e+01 6.1645597153e+01 3.9999999902e+01 0.0000e+00 0.0000e+00
      -11  1    4    4    0    0 -1.9370993652e+00 +1.4654609698e+01 +1.5992251949e+01 2.1777558673e+01 0.0000000000e+00 0.0000e+00 1.0000e+00
       13  1    4    4    0    0 +4.5184707996e+01 -6.6061797705e-01 +2.9669225017e+01 5.4058830600e+01 0.0000000000e+00 0.0000e+00 1.0000e+00
      -11  1    5    5    0    0 -3.7619070838e+01 -2.3471964023e+01 +1.9120059804e+01 4.8287723830e+01 0.0000000000e+00 0.0000e+00 1.0000e+00
       13  1    5    5    0    0 -5.6285377929e+00 +9.4779723019e+00 -7.5445598319e+00 1.3357873322e+01 0.0000000000e+00 0.0000e+00 1.0000e+00
<mgrwt>
<rscale>  0 0.12500090E+03</rscale>
<asrwt>0</asrwt>
<pdfrwt beam="1">  1       21 0.24339870E-01 0.12500090E+03</pdfrwt>
<pdfrwt beam="2">  1       21 0.10030626E-01 0.12500090E+03</pdfrwt>
<totfact> 0.12839236E+06</totfact>
</mgrwt>
</event>
<event>
 9      1 +9.5563000e+06 1.24995500e+02 7.81860800e-03 1.23507600e-01
       21 -1    0    0  502  501 +0.0000000000e+00 +0.0000000000e+00 +4.7416387279e+02 4.7416387279e+02 0.0000000000e+00 0.0000e+00 -1.0000e+00
       21 -1    0    0  501  502 -0.0000000000e+00 -0.0000000000e+00 -8.2375951430e+00 8.2375951430e+00 0.0000000000e+00 0.0000e+00 -1.0000e+00
       25  2    1    2    0    0 -3.5527136788e-15 -7.1054273576e-15 +4.6592627765e+02 4.8240146793e+02 1.2499552017e+02 0.0000e+00 0.0000e+00
  9000006  2    3    3    0    0 +2.2401135290e+01 +4.2475019331e+01 +2.3227402200e+02 2.4053515217e+02 4.0000000045e+01 0.0000e+00 0.0000e+00
  9000006  2    3    3    0    0 -2.2401135290e+01 -4.2475019331e+01 +2.3365225564e+02 2.4186631576e+02 4.0000000035e+01 0.0000e+00 0.0000e+00
      -11  1    5    5    0    0 -3.1415378587e+01 -3.8418547694e+01 +2.1606778525e+02 2.2169393010e+02 0.0000000000e+00 0.0000e+00 1.0000e+00
       13  1    4    4    0    0 +2.8128279157e+01 +4.5196678271e+01 +1.7517929858e+02 1.8308939474e+02 0.0000000000e+00 0.0000e+00 1.0000e+00
      -11  1    4    4    0    0 -5.7271438662e+00 -2.7216589406e+00 +5.7094723426e+01 5.7445757436e+01 0.0000000000e+00 0.0000e+00 1.0000e+00
       13  1    5    5    0    0 +9.0142432966e+00 -4.0564716371e+00 +1.7584470390e+01 2.0172385661e+01 0.0000000000e+00 0.0000e+00 1.0000e+00
<mgrwt>
<rscale>  0 0.12499552E+03</rscale>
<asrwt>0</asrwt>
<pdfrwt beam="1">  1       21 0.11854088E+00 0.12499552E+03</pdfrwt>
<pdfrwt beam="2">  1       21 0.20594004E-02 0.12499552E+03</pdfrwt>
<totfact> 0.64641579E+05</totfact>
</mgrwt>
</event>
<event>
 9      1 +9.5563000e+06 1.25000000e+02 7.81860800e-03 1.23506900e-01
       21 -1    0    0  502  501 +0.0000000000e+00 +0.0000000000e+00 +1.2504060010e+01 1.2504060010e+01 0.0000000000e+00 0.0000e+00 1.0000e+00
       21 -1    0    0  501  502 -0.0000000000e+00 -0.0000000000e+00 -3.1239854601e+02 3.1239854601e+02 0.0000000000e+00 0.0000e+00 1.0000e+00
       25  2    1    2    0    0 +0.0000000000e+00 -8.8817841970e-16 -2.9989448600e+02 3.2490260602e+02 1.2500000266e+02 0.0000e+00 0.0000e+00
  9000006  2    3    3    0    0 +4.7920782741e+01 -1.6090512258e+00 -1.5695053771e+02 1.6891554623e+02 4.0000000067e+01 0.0000e+00 0.0000e+00
  9000006  2    3    3    0    0 -4.7920782741e+01 +1.6090512258e+00 -1.4294394828e+02 1.5598705979e+02 4.0000000067e+01 0.0000e+00 0.0000e+00
      -11  1    4    4    0    0 +3.7601611780e+01 -7.8546600649e+00 -6.0170487623e+01 7.1386724774e+01 0.0000000000e+00 0.0000e+00 1.0000e+00
       13  1    4    4    0    0 +1.0319170961e+01 +6.2456088391e+00 -9.6780050091e+01 9.7528821457e+01 0.0000000000e+00 0.0000e+00 1.0000e+00
      -11  1    5    5    0    0 -1.7549709285e+01 -8.4186216648e+00 -1.6365103905e+01 2.5429945193e+01 0.0000000000e+00 0.0000e+00 1.0000e+00
       13  1    5    5    0    0 -3.0371073457e+01 +1.0027672891e+01 -1.2657884438e+02 1.3055711459e+02 0.0000000000e+00 0.0000e+00 1.0000e+00
<mgrwt>
<rscale>  0 0.12500000E+03</rscale>
<asrwt>0</asrwt>
<pdfrwt beam="1">  1       21 0.31260150E-02 0.12500000E+03</pdfrwt>
<pdfrwt beam="2">  1       21 0.78099638E-01 0.12500000E+03</pdfrwt>
<totfact> 0.86270183E+05</totfact>
</mgrwt>
</event>
<event>
 9      1 +9.5563000e+06 1.25004500e+02 7.81860800e-03 1.23506200e-01
       21 -1    0    0  502  501 +0.0000000000e+00 +0.0000000000e+00 +3.3039976354e+01 3.3039976354e+01 0.0000000000e+00 0.0000e+00 1.0000e+00
       21 -1    0    0  501  502 -0.0000000000e+00 -0.0000000000e+00 -1.1823647496e+02 1.1823647496e+02 0.0000000000e+00 0.0000e+00 1.0000e+00
       25  2    1    2    0    0 +0.0000000000e+00 +0.0000000000e+00 -8.5196498608e+01 1.5127645132e+02 1.2500448531e+02 0.0000e+00 0.0000e+00
  9000006  2    3    3    0    0 -3.2288428640e+01 -9.3300888660e+00 -8.4114906537e+01 9.9019748971e+01 4.0000000027e+01 0.0000e+00 0.0000e+00
  9000006  2    3    3    0    0 +3.2288428640e+01 +9.3300888660e+00 -1.0815920709e+00 5.2256702345e+01 3.9999998954e+01 0.0000e+00 0.0000e+00
      -11  1    5    5    0    0 +3.5056440236e-01 +1.4125806332e+01 -1.1609917828e+01 1.8288014980e+01 0.0000000000e+00 0.0000e+00 1.0000e+00
       13  1    4    4    0    0 -8.7957567708e+00 -2.0958639955e+01 -2.2144754315e+01 3.1733579527e+01 0.0000000000e+00 0.0000e+00 1.0000e+00
      -11  1    4    4    0    0 -2.3492671869e+01 +1.1628551089e+01 -6.1970152222e+01 6.7286169444e+01 0.0000000000e+00 0.0000e+00 1.0000e+00
       13  1    5    5    0    0 +3.1937864237e+01 -4.7957174661e+00 +1.0528325758e+01 3.3968687365e+01 0.0000000000e+00 0.0000e+00 1.0000e+00
<mgrwt>
<rscale>  0 0.12500449E+03</rscale>
<asrwt>0</asrwt>
<pdfrwt beam="1">  1       21 0.82599942E-02 0.12500449E+03</pdfrwt>
<pdfrwt beam="2">  1       21 0.29559118E-01 0.12500449E+03</pdfrwt>
<totfact> 0.12430848E+06</totfact>
</mgrwt>
</event>
<event>
 9      1 +9.5563000e+06 1.25001600e+02 7.81860800e-03 1.23506700e-01
       21 -1    0    0  502  501 +0.0000000000e+00 +0.0000000000e+00 +2.9234427684e+01 2.9234427684e+01 0.0000000000e+00 0.0000e+00 -1.0000e+00
       21 -1    0    0  501  502 -0.0000000000e+00 -0.0000000000e+00 -1.3362149884e+02 1.3362149884e+02 0.0000000000e+00 0.0000e+00 -1.0000e+00
       25  2    1    2    0    0 -1.7763568394e-15 +0.0000000000e+00 -1.0438707116e+02 1.6285592653e+02 1.2500156871e+02 0.0000e+00 0.0000e+00
  9000006  2    3    3    0    0 -1.1125567277e+01 +2.8192362635e+01 -3.6596160736e+00 5.0318787235e+01 4.0000000011e+01 0.0000e+00 0.0000e+00
  9000006  2    3    3    0    0 +1.1125567277e+01 -2.8192362635e+01 -1.0072745509e+02 1.1253713929e+02 3.9999999424e+01 0.0000e+00 0.0000e+00
      -11  1    5    5    0    0 +1.9345879830e+01 -1.7608615094e+01 -9.3941637301e+01 9.7515935163e+01 0.0000000000e+00 0.0000e+00 1.0000e+00
       13  1    4    4    0    0 +1.0625367082e+00 +3.4685530510e+01 -8.4250082375e+00 3.5709883434e+01 0.0000000000e+00 0.0000e+00 1.0000e+00
      -11  1    4    4    0    0 -1.2188103985e+01 -6.4931678753e+00 +4.7653921639e+00 1.4608903802e+01 0.0000000000e+00 0.0000e+00 1.0000e+00
       13  1    5    5    0    0 -8.2203125530e+00 -1.0583747541e+01 -6.7858177842e+00 1.5021204129e+01 0.0000000000e+00 0.0000e+00 1.0000e+00
<mgrwt>
<rscale>  0 0.12500157E+03</rscale>
<asrwt>0</asrwt>
<pdfrwt beam="1">  1       21 0.73086070E-02 0.12500157E+03</pdfrwt>
<pdfrwt beam="2">  1       21 0.33405374E-01 0.12500157E+03</pdfrwt>
<totfact> 0.12104791E+06</totfact>
</mgrwt>
</event>
<event>
 9      1 +9.5563000e+06 1.25004400e+02 7.81860800e-03 1.23506200e-01
       21 -1    0    0  502  501 +0.0000000000e+00 +0.0000000000e+00 +3.5129485145e+02 3.5129485145e+02 0.0000000000e+00 0.0000e+00 1.0000e+00
       21 -1    0    0  501  502 -0.0000000000e+00 -0.0000000000e+00 -1.1120353514e+01 1.1120353514e+01 0.0000000000e+00 0.0000e+00 1.0000e+00
       25  2    1    2    0    0 -7.1054273576e-15 -3.5527136788e-15 +3.4017449793e+02 3.6241520496e+02 1.2500436690e+02 0.0000e+00 0.0000e+00
  9000006  2    3    3    0    0 -2.6936264177e+01 -1.0970513169e+01 +2.8088938428e+02 2.8521002910e+02 4.0000000118e+01 0.0000e+00 0.0000e+00
  9000006  2    3    3    0    0 +2.6936264177e+01 +1.0970513169e+01 +5.9285113651e+01 7.7205175863e+01 3.9999999905e+01 0.0000e+00 0.0000e+00
      -11  1    4    4    0    0 -8.2394966352e+00 -1.3216939656e+01 +3.1794353987e+01 3.5404205176e+01 0.0000000000e+00 0.0000e+00 1.0000e+00
       13  1    4    4    0    0 -1.8696767541e+01 +2.2464264865e+00 +2.4909503029e+02 2.4980582392e+02 0.0000000000e+00 0.0000e+00 1.0000e+00
      -11  1    5    5    0    0 +3.2629805926e+01 +1.8122254767e+01 +3.4650356356e+01 5.0929044250e+01 0.0000000000e+00 0.0000e+00 1.0000e+00
       13  1    5    5    0    0 -5.6935417497e+00 -7.1517415973e+00 +2.4634757296e+01 2.6276131613e+01 0.0000000000e+00 0.0000e+00 1.0000e+00
<mgrwt>
<rscale>  0 0.12500437E+03</rscale>
<asrwt>0</asrwt>
<pdfrwt beam="1">  1       21 0.87823676E-01 0.12500437E+03</pdfrwt>
<pdfrwt beam="2">  1       21 0.27800895E-02 0.12500437E+03</pdfrwt>
<totfact> 0.80306037E+05</totfact>
</mgrwt>
</event>
<event>
 9      1 +9.5563000e+06 1.24999100e+02 7.81860800e-03 1.23507100e-01
       21 -1    0    0  502  501 +0.0000000000e+00 +0.0000000000e+00 +2.2972243978e+01 2.2972243978e+01 0.0000000000e+00 0.0000e+00 -1.0000e+00
       21 -1    0    0  501  502 -0.0000000000e+00 -0.0000000000e+00 -1.7003980874e+02 1.7003980874e+02 0.0000000000e+00 0.0000e+00 -1.0000e+00
       25  2    1    2    0    0 +7.1054273576e-15 +3.5527136788e-15 -1.4706756476e+02 1.9301205272e+02 1.2499913555e+02 0.0000e+00 0.0000e+00
  9000006  2    3    3    0    0 -3.6117573626e+01 -2.6964879208e+01 -9.9121837894e+01 1.1600311453e+02 3.9999999967e+01 0.0000e+00 0.0000e+00
  9000006  2    3    3    0    0 +3.6117573626e+01 +2.6964879208e+01 -4.7945726868e+01 7.7008938189e+01 4.0000000011e+01 0.0000e+00 0.0000e+00
      -11  1    5    5    0    0 +3.7594502935e+01 +2.3123920573e+01 -1.9475240605e+01 4.8242588553e+01 0.0000000000e+00 0.0000e+00 1.0000e+00
       13  1    4    4    0    0 -3.0130074444e+01 -3.1199398261e+00 -2.9973054235e+01 4.2613840365e+01 0.0000000000e+00 0.0000e+00 1.0000e+00
      -11  1    4    4    0    0 -5.9874991820e+00 -2.3844939381e+01 -6.9148783660e+01 7.3389274163e+01 0.0000000000e+00 0.0000e+00 1.0000e+00
       13  1    5    5    0    0 -1.4769293094e+00 +3.8409586349e+00 -2.8470486262e+01 2.8766349637e+01 0.0000000000e+00 0.0000e+00 1.0000e+00
<mgrwt>
<rscale>  0 0.12499914E+03</rscale>
<asrwt>0</asrwt>
<pdfrwt beam="1">  1       21 0.57430611E-02 0.12499914E+03</pdfrwt>
<pdfrwt beam="2">  1       21 0.42509951E-01 0.12499914E+03</pdfrwt>
<totfact> 0.11315678E+06</totfact>
</mgrwt>
</event>
<event>
 9      1 +9.5563000e+06 1.24989600e+02 7.81860800e-03 1.23508600e-01
       21 -1    0    0  502  501 +0.0000000000e+00 +0.0000000000e+00 +4.1768166837e+01 4.1768166837e+01 0.0000000000e+00 0.0000e+00 1.0000e+00
       21 -1    0    0  501  502 -0.0000000000e+00 -0.0000000000e+00 -9.3506559642e+01 9.3506559642e+01 0.0000000000e+00 0.0000e+00 1.0000e+00
       25  2    1    2    0    0 +1.7763568394e-15 +0.0000000000e+00 -5.1738392805e+01 1.3527472648e+02 1.2498956090e+02 0.0000e+00 0.0000e+00
  9000006  2    3    3    0    0 +7.3877729184e+00 +4.6772228682e+01 -1.7253134040e+01 6.4341986285e+01 4.0000000004e+01 0.0000e+00 0.0000e+00
  9000006  2    3    3    0    0 -7.3877729184e+00 -4.6772228682e+01 -3.4485258765e+01 7.0932740194e+01 3.9999999935e+01 0.0000e+00 0.0000e+00
      -11  1    4    4    0    0 +1.3864366708e+01 +5.1207780884e+01 -1.8906777171e+01 5.6319834076e+01 0.0000000000e+00 0.0000e+00 1.0000e+00
       13  1    4    4    0    0 -6.4765937900e+00 -4.4355522025e+00 +1.6536431310e+00 8.0221522091e+00 0.0000000000e+00 0.0000e+00 1.0000e+00
      -11  1    5    5    0    0 -2.3020733457e+01 -2.7588617904e+01 -1.3161892691e+01 3.8266453010e+01 0.0000000000e+00 0.0000e+00 1.0000e+00
       13  1    5    5    0    0 +1.5632960539e+01 -1.9183610778e+01 -2.1323366074e+01 3.2666287184e+01 0.0000000000e+00 0.0000e+00 1.0000e+00
<mgrwt>
<rscale>  0 0.12498956E+03</rscale>
<asrwt>0</asrwt>
<pdfrwt beam="1">  1       21 0.10442042E-01 0.12498956E+03</pdfrwt>
<pdfrwt beam="2">  1       21 0.23376640E-01 0.12498956E+03</pdfrwt>
<totfact> 0.12910083E+06</totfact>
</mgrwt>
</event>
<event>
 9      1 +9.5563000e+06 1.25016500e+02 7.81860800e-03 1.23504400e-01
       21 -1    0    0  502  501 +0.0000000000e+00 +0.0000000000e+00 +1.2862855459e+02 1.2862855459e+02 0.0000000000e+00 0.0000e+00 1.0000e+00
       21 -1    0    0  501  502 -0.0000000000e+00 -0.0000000000e+00 -3.0376458562e+01 3.0376458562e+01 0.0000000000e+00 0.0000e+00 1.0000e+00
       25  2    1    2    0    0 -3.5527136788e-15 +0.0000000000e+00 +9.8252096030e+01 1.5900501315e+02 1.2501647825e+02 0.0000e+00 0.0000e+00
  9000006  2    3    3    0    0 +3.1874345919e+01 -3.0734882873e+01 +2.5444855586e+01 6.4869466131e+01 4.0000000092e+01 0.0000e+00 0.0000e+00
  9000006  2    3    3    0    0 -3.1874345919e+01 +3.0734882873e+01 +7.2807240443e+01 9.4135547023e+01 3.9999999992e+01 0.0000e+00 0.0000e+00
      -11  1    4    4    0    0 +2.5327258886e+01 -3.3388873083e+01 +3.3863274161e+01 5.3879571503e+01 0.0000000000e+00 0.0000e+00 1.0000e+00
       13  1    4    4    0    0 +6.5470870330e+00 +2.6539902097e+00 -8.4184185745e+00 1.0989894629e+01 0.0000000000e+00 0.0000e+00 1.0000e+00
      -11  1    5    5    0    0 -4.0102358063e+01 +2.1600711804e+01 +4.6473820242e+01 6.5073849130e+01 0.0000000000e+00 0.0000e+00 1.0000e+00
       13  1    5    5    0    0 +8.2280121435e+00 +9.1341710697e+00 +2.6333420201e+01 2.9061697894e+01 0.0000000000e+00 0.0000e+00 1.0000e+00
<mgrwt>
<rscale>  0 0.12501648E+03</rscale>
<asrwt>0</asrwt>
<pdfrwt beam="1">  1       21 0.32157137E-01 0.12501648E+03</pdfrwt>
<pdfrwt beam="2">  1       21 0.75941150E-02 0.12501648E+03</pdfrwt>
<totfact> 0.12207116E+06</totfact>
</mgrwt>
</event>
<event>
 9      1 +9.5563000e+06 1.24997800e+02 7.81860800e-03 1.23507300e-01
       21 -1    0    0  502  501 +0.0000000000e+00 +0.0000000000e+00 +2.2782935533e+01 2.2782935533e+01 0.0000000000e+00 0.0000e+00 -1.0000e+00
       21 -1    0    0  501  502 -0.0000000000e+00 -0.0000000000e+00 -1.7144891325e+02 1.7144891325e+02 0.0000000000e+00 0.0000e+00 -1.0000e+00
       25  2    1    2    0    0 +0.0000000000e+00 +0.0000000000e+00 -1.4866597771e+02 1.9423184878e+02 1.2499775258e+02 0.0000e+00 0.0000e+00
  9000006  2    3    3    0    0 +4.3536078816e+01 +1.5575909103e+01 -9.4480229574e+01 1.1253671791e+02 3.9999999923e+01 0.0000e+00 0.0000e+00
  9000006  2    3    3    0    0 -4.3536078816e+01 -1.5575909103e+01 -5.4185748140e+01 8.1695130874e+01 4.0000000048e+01 0.0000e+00 0.0000e+00
      -11  1    5    5    0    0 -7.6796392889e+00 -1.3574852593e+01 -4.0263397481e+01 4.3178636607e+01 0.0000000000e+00 0.0000e+00 1.0000e+00
       13  1    4    4    0    0 +1.0751866232e+01 -5.0537835061e+00 -1.7076913105e+00 1.2002481610e+01 0.0000000000e+00 0.0000e+00 1.0000e+00
      -11  1    4    4    0    0 +3.2784212585e+01 +2.0629692609e+01 -9.2772538264e+01 1.0053423630e+02 0.0000000000e+00 0.0000e+00 1.0000e+00
       13  1    5    5    0    0 -3.5856439527e+01 -2.0010565107e+00 -1.3922350659e+01 3.8516494267e+01 0.0000000000e+00 0.0000e+00 1.0000e+00
<mgrwt>
<rscale>  0 0.12499775E+03</rscale>
<asrwt>0</asrwt>
<pdfrwt beam="1">  1       21 0.56957340E-02 0.12499775E+03</pdfrwt>
<pdfrwt beam="2">  1       21 0.42862227E-01 0.12499775E+03</pdfrwt>
<totfact> 0.11285735E+06</totfact>
</mgrwt>
</event>
<event>
 9      1 +9.5563000e+06 1.24999400e+02 7.81860800e-03 1.23507000e-01
       21 -1    0    0  502  501 +0.0000000000e+00 +0.0000000000e+00 +8.7876237960e+01 8.7876237960e+01 0.0000000000e+00 0.0000e+00 -1.0000e+00
       21 -1    0    0  501  502 -0.0000000000e+00 -0.0000000000e+00 -4.4451275832e+01 4.4451275832e+01 0.0000000000e+00 0.0000e+00 -1.0000e+00
       25  2    1    2    0    0 +0.0000000000e+00 -7.1054273576e-15 +4.3424962128e+01 1.3232751379e+02 1.2499937428e+02 0.0000e+00 0.0000e+00
  9000006  2    3    3    0    0 +3.8158636632e+01 +2.6015987382e+01 +3.5648501419e+01 7.0737039954e+01 4.0000000238e+01 0.0000e+00 0.0000e+00
  9000006  2    3    3    0    0 -3.8158636632e+01 -2.6015987382e+01 +7.7764607091e+00 6.1590473837e+01 3.9999999717e+01 0.0000e+00 0.0000e+00
      -11  1    4    4    0    0 +1.8730818855e+01 +1.5696081379e+01 -4.6017734897e+00 2.4867385565e+01 0.0000000000e+00 0.0000e+00 1.0000e+00
       13  1    4    4    0    0 +1.9427817777e+01 +1.0319906003e+01 +4.0250274909e+01 4.5869654389e+01 0.0000000000e+00 0.0000e+00 1.0000e+00
      -11  1    5    5    0    0 -4.3320248792e+00 -6.3128202250e+00 +1.9316416316e+01 2.0778404127e+01 0.0000000000e+00 0.0000e+00 1.0000e+00
       13  1    5    5    0    0 -3.3826611752e+01 -1.9703167157e+01 -1.1539955607e+01 4.0812069711e+01 0.0000000000e+00 0.0000e+00 1.0000e+00
<mgrwt>
<rscale>  0 0.12499937E+03</rscale>
<asrwt>0</asrwt>
<pdfrwt beam="1">  1       21 0.21969059E-01 0.12499937E+03</pdfrwt>
<pdfrwt beam="2">  1       21 0.11112819E-01 0.12499937E+03</pdfrwt>
<totfact> 0.12997318E+06</totfact>
</mgrwt>
</event>
<event>
 9      1 +9.5563000e+06 1.25001100e+02 7.81860800e-03 1.23506800e-01
       21 -1    0    0  502  501 +0.0000000000e+00 +0.0000000000e+00 +1.8156720962e+01 1.8156720962e+01 0.0000000000e+00 0.0000e+00 1.0000e+00
       21 -1    0    0  501  502 -0.0000000000e+00 -0.0000000000e+00 -2.1514463820e+02 2.1514463820e+02 0.0000000000e+00 0.0000e+00 1.0000e+00
       25  2    1    2    0    0 +0.0000000000e+00 +0.0000000000e+00 -1.9698791724e+02 2.3330135916e+02 1.2500113859e+02 0.0000e+00 0.0000e+00
  9000006  2    3    3    0    0 +1.2641461839e+00 +1.2175101352e+01 -1.1822317328e+01 4.3469511063e+01 4.0000000582e+01 0.0000e+00 0.0000e+00
  9000006  2    3    3    0    0 -1.2641461839e+00 -1.2175101352e+01 -1.8516559991e+02 1.8983184810e+02 4.0000000054e+01 0.0000e+00 0.0000e+00
      -11  1    4    4    0    0 +1.1446167718e+00 -1.4838213616e+00 +1.4070439559e+01 1.4194687132e+01 0.0000000000e+00 0.0000e+00 1.0000e+00
       13  1    4    4    0    0 +1.1952941214e-01 +1.3658922714e+01 -2.5892756887e+01 2.9274823931e+01 0.0000000000e+00 0.0000e+00 1.0000e+00
      -11  1    5    5    0    0 -5.1949169657e+00 -2.3314393656e+01 -1.6275718014e+02 1.6450060122e+02 0.0000000000e+00 0.0000e+00 1.0000e+00
       13  1    5    5    0    0 +3.9307707818e+00 +1.1139292304e+01 -2.2408419765e+01 2.5331246877e+01 0.0000000000e+00 0.0000e+00 1.0000e+00
<mgrwt>
<rscale>  0 0.12500114E+03</rscale>
<asrwt>0</asrwt>
<pdfrwt beam="1">  1       21 0.45391803E-02 0.12500114E+03</pdfrwt>
<pdfrwt beam="2">  1       21 0.53786159E-01 0.12500114E+03</pdfrwt>
<totfact> 0.10376237E+06</totfact>
</mgrwt>
</event>
<event>
 9      1 +9.5563000e+06 1.25003900e+02 7.81860800e-03 1.23506300e-01
       21 -1    0    0  502  501 +0.0000000000e+00 +0.0000000000e+00 +3.0089422238e+02 3.0089422238e+02 0.0000000000e+00 0.0000e+00 1.0000e+00
       21 -1    0    0  501  502 -0.0000000000e+00 -0.0000000000e+00 -1.2982956855e+01 1.2982956855e+01 0.0000000000e+00 0.0000e+00 1.0000e+00
       25  2    1    2    0    0 +0.0000000000e+00 -1.7763568394e-15 +2.8791126553e+02 3.1387717924e+02 1.2500394725e+02 0.0000e+00 0.0000e+00
  9000006  2    3    3    0    0 +1.7730671596e+01 -1.3912181614e+01 +2.5044342696e+02 2.5461703718e+02 3.9999999998e+01 0.0000e+00 0.0000e+00
  9000006  2    3    3    0    0 -1.7730671596e+01 +1.3912181614e+01 +3.7467838569e+01 5.9260142064e+01 3.9999999974e+01 0.0000e+00 0.0000e+00
      -11  1    4    4    0    0 +2.4642195882e+01 -2.2282472949e+01 +2.1490345914e+02 2.1745630174e+02 0.0000000000e+00 0.0000e+00 1.0000e+00
       13  1    4    4    0    0 -6.9115242867e+00 +8.3702913354e+00 +3.5539967824e+01 3.7160735433e+01 0.0000000000e+00 0.0000e+00 1.0000e+00
      -11  1    5    5    0    0 -2.8587139835e+01 +1.6889037079e+01 +2.0913138023e+01 3.9240584595e+01 0.0000000000e+00 0.0000e+00 1.0000e+00
       13  1    5    5    0    0 +1.0856468239e+01 -2.9768554647e+00 +1.6554700546e+01 2.0019557469e+01 0.0000000000e+00 0.0000e+00 1.0000e+00
<mgrwt>
<rscale>  0 0.12500395E+03</rscale>
<asrwt>0</asrwt>
<pdfrwt beam="1">  1       21 0.75223533E-01 0.12500395E+03</pdfrwt>
<pdfrwt beam="2">  1       21 0.32457402E-02 0.12500395E+03</pdfrwt>
<totfact> 0.88129630E+05</totfact>
</mgrwt>
</event>
<event>
 9      1 +9.5563000e+06 1.25001900e+02 7.81860800e-03 1.23506600e-01
       21 -1    0    0  502  501 +0.0000000000e+00 +0.0000000000e+00 +2.4812170990e+01 2.4812170990e+01 0.0000000000e+00 0.0000e+00 1.0000e+00
       21 -1    0    0  501  502 -0.0000000000e+00 -0.0000000000e+00 -1.5743769745e+02 1.5743769745e+02 0.0000000000e+00 0.0000e+00 1.0000e+00
       25  2    1    2    0    0 +0.0000000000e+00 -3.5527136788e-15 -1.3262552646e+02 1.8224986844e+02 1.2500193710e+02 0.0000e+00 0.0000e+00
  9000006  2    3    3    0    0 +1.6102206633e+01 +2.1364055690e+01 -1.2446147955e+02 1.3344048819e+02 4.0000000773e+01 0.0000e+00 0.0000e+00
  9000006  2    3    3    0    0 -1.6102206633e+01 -2.1364055690e+01 -8.1640469075e+00 4.8809380251e+01 4.0000000057e+01 0.0000e+00 0.0000e+00
      -11  1    4    4    0    0 +2.7723783991e+01 +5.3851848794e+00 -6.8507728934e+01 7.4100724279e+01 0.0000000000e+00 0.0000e+00 1.0000e+00
       13  1    4    4    0    0 -1.1621577358e+01 +1.5978870811e+01 -5.5953750620e+01 5.9339763912e+01 0.0000000000e+00 0.0000e+00 1.0000e+00
      -11  1    5    5    0    0 +4.3159624152e+00 +4.3895183301e+00 +9.6348989608e+00 1.1433576900e+01 0.0000000000e+00 0.0000e+00 1.0000e+00
       13  1    5    5    0    0 -2.0418169049e+01 -2.5753574020e+01 -1.7798945868e+01 3.7375803351e+01 0.0000000000e+00 0.0000e+00 1.0000e+00
<mgrwt>
<rscale>  0 0.12500194E+03</rscale>
<asrwt>0</asrwt>
<pdfrwt beam="1">  1       21 0.62030428E-02 0.12500194E+03</pdfrwt>
<pdfrwt beam="2">  1       21 0.39359424E-01 0.12500194E+03</pdfrwt>
<totfact> 0.11588188E+06</totfact>
</mgrwt>
</event>
<event>
 9      1 +9.5563000e+06 1.25001600e+02 7.81860800e-03 1.23506700e-01
       21 -1    0    0  502  501 +0.0000000000e+00 +0.0000000000e+00 +7.0630572171e+02 7.0630572171e+02 0.0000000000e+00 0.0000e+00 -1.0000e+00
       21 -1    0    0  501  502 -0.0000000000e+00 -0.0000000000e+00 -5.5306792908e+00 5.5306792908e+00 0.0000000000e+00 0.0000e+00 -1.0000e+00
       25  2    1    2    0    0 +0.0000000000e+00 +0.0000000000e+00 +7.0077504242e+02 7.1183640100e+02 1.2500160684e+02 0.0000e+00 0.0000e+00
  9000006  2    3    3    0    0 +3.2082212088e+01 -2.4756200001e+01 +2.0362398353e+02 2.1143524881e+02 3.9999999967e+01 0.0000e+00 0.0000e+00
  9000006  2    3    3    0    0 -3.2082212088e+01 +2.4756200001e+01 +4.9715105888e+02 5.0040115219e+02 3.9999999927e+01 0.0000e+00 0.0000e+00
      -11  1    5    5    0    0 -3.0692463703e+01 +2.8335687877e+01 +2.6953741317e+02 2.7275512027e+02 0.0000000000e+00 0.0000e+00 1.0000e+00
       13  1    4    4    0    0 +3.8841777451e+01 -9.3246453389e+00 +1.3606022795e+02 1.4180274439e+02 0.0000000000e+00 0.0000e+00 1.0000e+00
      -11  1    4    4    0    0 -6.7595653626e+00 -1.5431554662e+01 +6.7563755580e+01 6.9632504416e+01 0.0000000000e+00 0.0000e+00 1.0000e+00
       13  1    5    5    0    0 -1.3897483857e+00 -3.5794878762e+00 +2.2761364571e+02 2.2764603192e+02 0.0000000000e+00 0.0000e+00 1.0000e+00
<mgrwt>
<rscale>  0 0.12500161E+03</rscale>
<asrwt>0</asrwt>
<pdfrwt beam="1">  1       21 0.17657612E+00 0.12500161E+03</pdfrwt>
<pdfrwt beam="2">  1       21 0.13826722E-02 0.12500161E+03</pdfrwt>
<totfact> 0.43971065E+05</totfact>
</mgrwt>
</event>
<event>
 9      1 +9.5563000e+06 1.25016400e+02 7.81860800e-03 1.23504400e-01
       21 -1    0    0  502  501 +0.0000000000e+00 +0.0000000000e+00 +4.3138268180e+01 4.3138268180e+01 0.0000000000e+00 0.0000e+00 1.0000e+00
       21 -1    0    0  501  502 -0.0000000000e+00 -0.0000000000e+00 -9.0575564558e+01 9.0575564558e+01 0.0000000000e+00 0.0000e+00 1.0000e+00
       25  2    1    2    0    0 -1.7763568394e-15 +7.1054273576e-15 -4.7437296378e+01 1.3371383274e+02 1.2501636684e+02 0.0000e+00 0.0000e+00
  9000006  2    3    3    0    0 +1.2464273191e+01 +4.5385713655e+01 -3.3980501110e+01 7.0497486347e+01 4.0000000193e+01 0.0000e+00 0.0000e+00
  9000006  2    3    3    0    0 -1.2464273191e+01 -4.5385713655e+01 -1.3456795268e+01 6.3216346391e+01 4.0000000025e+01 0.0000e+00 0.0000e+00
      -11  1    5    5    0    0 +9.9311028765e+00 -3.0254362621e+01 +2.3089961348e+00 3.1926238819e+01 0.0000000000e+00 0.0000e+00 1.0000e+00
       13  1    4    4    0    0 -9.3546569721e+00 +3.3965204337e+01 -2.8386374953e+01 4.5243021514e+01 0.0000000000e+00 0.0000e+00 1.0000e+00
      -11  1    4    4    0    0 +2.1818930164e+01 +1.1420509317e+01 -5.5941261569e+00 2.5254464833e+01 0.0000000000e+00 0.0000e+00 1.0000e+00
       13  1    5    5    0    0 -2.2395376068e+01 -1.5131351034e+01 -1.5765791403e+01 3.1290107572e+01 0.0000000000e+00 0.0000e+00 1.0000e+00
<mgrwt>
<rscale>  0 0.12501637E+03</rscale>
<asrwt>0</asrwt>
<pdfrwt beam="1">  1       21 0.10784567E-01 0.12501637E+03</pdfrwt>
<pdfrwt beam="2">  1       21 0.22643891E-01 0.12501637E+03</pdfrwt>
<totfact> 0.12948751E+06</totfact>
</mgrwt>
</event>
<event>
 9      1 +9.5563000e+06 1.25004400e+02 7.81860800e-03 1.23506200e-01
       21 -1    0    0  502  501 +0.0000000000e+00 +0.0000000000e+00 +2.0880043112e+02 2.0880043112e+02 0.0000000000e+00 0.0000e+00 -1.0000e+00
       21 -1    0    0  501  502 -0.0000000000e+00 -0.0000000000e+00 -1.8709370683e+01 1.8709370683e+01 0.0000000000e+00 0.0000e+00 -1.0000e+00
       25  2    1    2    0    0 +0.0000000000e+00 +0.0000000000e+00 +1.9009106044e+02 2.2750980180e+02 1.2500439455e+02 0.0000e+00 0.0000e+00
  9000006  2    3    3    0    0 +3.8381071840e+01 -2.3626715814e+01 +6.4853235949e+01 8.8528360371e+01 4.0000000016e+01 0.0000e+00 0.0000e+00
  9000006  2    3    3    0    0 -3.8381071840e+01 +2.3626715814e+01 +1.2523782449e+02 1.3898144143e+02 4.0000000050e+01 0.0000e+00 0.0000e+00
      -11  1    5    5    0    0 -3.3363967424e+01 +3.0703251584e+01 +1.2121853392e+02 1.2942092931e+02 0.0000000000e+00 0.0000e+00 1.0000e+00
       13  1    4    4    0    0 +4.1402730753e+01 -3.0596264709e+01 +6.1558741157e+01 8.0248340424e+01 0.0000000000e+00 0.0000e+00 1.0000e+00
      -11  1    4    4    0    0 -3.0216589139e+00 +6.9695488950e+00 +3.2944947917e+00 8.2800199471e+00 0.0000000000e+00 0.0000e+00 1.0000e+00
       13  1    5    5    0    0 -5.0171044158e+00 -7.0765357699e+00 +4.0192905733e+00 9.5605121168e+00 0.0000000000e+00 0.0000e+00 1.0000e+00
<mgrwt>
<rscale>  0 0.12500439E+03</rscale>
<asrwt>0</asrwt>
<pdfrwt beam="1">  1       21 0.52200101E-01 0.12500439E+03</pdfrwt>
<pdfrwt beam="2">  1       21 0.46773433E-02 0.12500439E+03</pdfrwt>
<totfact> 0.10502714E+06</totfact>
</mgrwt>
</event>
<event>
 9      1 +9.5563000e+06 1.25003000e+02 7.81860800e-03 1.23506500e-01
       21 -1    0    0  502  501 +0.0000000000e+00 +0.0000000000e+00 +6.4435186576e+00 6.4435186576e+00 0.0000000000e+00 0.0000e+00 1.0000e+00
       21 -1    0    0  501  502 -0.0000000000e+00 -0.0000000000e+00 -6.0625820866e+02 6.0625820866e+02 0.0000000000e+00 0.0000e+00 1.0000e+00
       25  2    1    2    0    0 +0.0000000000e+00 +0.0000000000e+00 -5.9981469001e+02 6.1270172732e+02 1.2500297723e+02 0.0000e+00 0.0000e+00
  9000006  2    3    3    0    0 -1.4736799012e+01 +2.0268593763e+01 -5.0071605780e+02 5.0293593992e+02 3.9999999847e+01 0.0000e+00 0.0000e+00
  9000006  2    3    3    0    0 +1.4736799012e+01 -2.0268593763e+01 -9.9098632203e+01 1.0976578740e+02 4.0000000501e+01 0.0000e+00 0.0000e+00
      -11  1    5    5    0    0 +1.3563252828e+00 -2.8214246260e+01 -8.1588518515e+01 8.6339849801e+01 0.0000000000e+00 0.0000e+00 1.0000e+00
       13  1    4    4    0    0 +1.2485105860e+01 +1.0008732483e+01 -1.1262392489e+02 1.1375500451e+02 0.0000000000e+00 0.0000e+00 1.0000e+00
      -11  1    4    4    0    0 -2.7221904873e+01 +1.0259861280e+01 -3.8809213291e+02 3.8918093541e+02 0.0000000000e+00 0.0000e+00 1.0000e+00
       13  1    5    5    0    0 +1.3380473730e+01 +7.9456524977e+00 -1.7510113689e+01 2.3425937596e+01 0.0000000000e+00 0.0000e+00 1.0000e+00
<mgrwt>
<rscale>  0 0.12500298E+03</rscale>
<asrwt>0</asrwt>
<pdfrwt beam="1">  1       21 0.16108803E-02 0.12500298E+03</pdfrwt>
<pdfrwt beam="2">  1       21 0.15156450E+00 0.12500298E+03</pdfrwt>
<totfact> 0.51775313E+05</totfact>
</mgrwt>
</event>
<event>
 9      1 +9.5563000e+06 1.24998700e+02 7.81860800e-03 1.23507100e-01
       21 -1    0    0  502  501 +0.0000000000e+00 +0.0000000000e+00 +8.5411770424e+01 8.5411770424e+01 0.0000000000e+00 0.0000e+00 -1.0000e+00
       21 -1    0    0  501  502 -0.0000000000e+00 -0.0000000000e+00 -4.5733390499e+01 4.5733390499e+01 0.0000000000e+00 0.0000e+00 -1.0000e+00
       25  2    1    2    0    0 +0.0000000000e+00 -1.7763568394e-15 +3.9678379925e+01 1.3114516092e+02 1.2499871759e+02 0.0000e+00 0.0000e+00
  9000006  2    3    3    0    0 -3.0919703615e+00 +4.8384652091e+00 +6.9861693452e+01 8.0707045788e+01 4.0000000021e+01 0.0000e+00 0.0000e+00
  9000006  2    3    3    0    0 +3.0919703615e+00 -4.8384652091e+00 -3.0183313527e+01 5.0438115134e+01 4.0000000207e+01 0.0000e+00 0.0000e+00
      -11  1    4    4    0    0 -1.0691048399e+01 +1.5931011292e+01 +6.2498617337e+01 6.5377158134e+01 0.0000000000e+00 0.0000e+00 1.0000e+00
       13  1    4    4    0    0 +7.5990780380e+00 -1.1092546083e+01 +7.3630761143e+00 1.5329887654e+01 0.0000000000e+00 0.0000e+00 1.0000e+00
      -11  1    5    5    0    0 -1.0872817851e+00 -1.8758074088e+01 -2.2157325046e+00 1.8919751470e+01 0.0000000000e+00 0.0000e+00 1.0000e+00
       13  1    5    5    0    0 +4.1792521466e+00 +1.3919608879e+01 -2.7967581022e+01 3.1518363664e+01 0.0000000000e+00 0.0000e+00 1.0000e+00
<mgrwt>
<rscale>  0 0.12499872E+03</rscale>
<asrwt>0</asrwt>
<pdfrwt beam="1">  1       21 0.21352942E-01 0.12499872E+03</pdfrwt>
<pdfrwt beam="2">  1       21 0.11433348E-01 0.12499872E+03</pdfrwt>
<totfact> 0.13034274E+06</totfact>
</mgrwt>
</event>
<event>
 9      1 +9.5563000e+06 1.24996200e+02 7.81860800e-03 1.23507500e-01
       21 -1    0    0  502  501 +0.0000000000e+00 +0.0000000000e+00 +9.9532080883e+01 9.9532080883e+01 0.0000000000e+00 0.0000e+00 1.0000e+00
       21 -1    0    0  501  502 -0.0000000000e+00 -0.0000000000e+00 -3.9243746895e+01 3.9243746895e+01 0.0000000000e+00 0.0000e+00 1.0000e+00
       25  2    1    2    0    0 +3.5527136788e-15 +7.1054273576e-15 +6.0288333988e+01 1.3877582778e+02 1.2499618858e+02 0.0000e+00 0.0000e+00
  9000006  2    3    3    0    0 +1.7772689843e+01 +3.1633298786e+01 +6.5067851737e+01 8.4559797956e+01 4.0000000055e+01 0.0000e+00 0.0000e+00
  9000006  2    3    3    0    0 -1.7772689843e+01 -3.1633298786e+01 -4.7795177489e+00 5.4216029821e+01 4.0000000042e+01 0.0000e+00 0.0000e+00
      -11  1    4    4    0    0 +1.0764271678e+01 -7.7032920572e+00 +2.3027953433e+01 2.6561191475e+01 0.0000000000e+00 0.0000e+00 1.0000e+00
       13  1    4    4    0    0 +7.0084181652e+00 +3.9336590843e+01 +4.2039898304e+01 5.7998606481e+01 0.0000000000e+00 0.0000e+00 1.0000e+00
      -11  1    5    5    0    0 -8.2635495413e+00 -8.2472326776e+00 -2.1128208902e+01 2.4139269029e+01 0.0000000000e+00 0.0000e+00 1.0000e+00
       13  1    5    5    0    0 -9.5091403021e+00 -2.3386066108e+01 +1.6348691153e+01 3.0076760792e+01 0.0000000000e+00 0.0000e+00 1.0000e+00
<mgrwt>
<rscale>  0 0.12499619E+03</rscale>
<asrwt>0</asrwt>
<pdfrwt beam="1">  1       21 0.24883020E-01 0.12499619E+03</pdfrwt>
<pdfrwt beam="2">  1       21 0.98109369E-02 0.12499619E+03</pdfrwt>
<totfact> 0.12801862E+06</totfact>
</mgrwt>
</event>
<event>
 9      1 +9.5563000e+06 1.25000300e+02 7.81860800e-03 1.23506900e-01
       21 -1    0    0  502  501 +0.0000000000e+00 +0.0000000000e+00 +1.0822717015e+02 1.0822717015e+02 0.0000000000e+00 0.0000e+00 -1.0000e+00
       21 -1    0    0  501  502 -0.0000000000e+00 -0.0000000000e+00 -3.6093229395e+01 3.6093229395e+01 0.0000000000e+00 0.0000e+00 -1.0000e+00
       25  2    1    2    0    0 +3.5527136788e-15 +7.1054273576e-15 +7.2133940757e+01 1.4432039955e+02 1.2500028926e+02 0.0000e+00 0.0000e+00
  9000006  2    3    3    0    0 -2.6334532174e+01 -3.6562690361e+01 +5.5245543767e+01 8.1745996953e+01 4.0000000007e+01 0.0000e+00 0.0000e+00
  9000006  2    3    3    0    0 +2.6334532174e+01 +3.6562690361e+01 +1.6888396990e+01 6.2574402593e+01 3.9999999947e+01 0.0000e+00 0.0000e+00
      -11  1    5    5    0    0 -3.8527453292e+00 +2.6328544899e+01 +1.5223588971e+01 3.0656052979e+01 0.0000000000e+00 0.0000e+00 1.0000e+00
       13  1    4    4    0    0 -3.0399565942e+01 -1.1471528321e+01 +4.1946426185e+01 5.3058762152e+01 0.0000000000e+00 0.0000e+00 1.0000e+00
      -11  1    4    4    0    0 +4.0650337681e+00 -2.5091162040e+01 +1.3299117582e+01 2.8687234801e+01 0.0000000000e+00 0.0000e+00 1.0000e+00
       13  1    5    5    0    0 +3.0187277503e+01 +1.0234145462e+01 +1.6648080186e+00 3.1918349615e+01 0.0000000000e+00 0.0000e+00 1.0000e+00
<mgrwt>
<rscale>  0 0.12500029E+03</rscale>
<asrwt>0</asrwt>
<pdfrwt beam="1">  1       21 0.27056792E-01 0.12500029E+03</pdfrwt>
<pdfrwt beam="2">  1       21 0.90233076E-02 0.12500029E+03</pdfrwt>
<totfact> 0.12635870E+06</totfact>
</mgrwt>
</event>
<event>
 9      1 +9.5563000e+06 1.24997100e+02 7.81860800e-03 1.23507400e-01
       21 -1    0    0  502  501 +0.0000000000e+00 +0.0000000000e+00 +4.5114333694e+01 4.5114333694e+01 0.0000000000e+00 0.0000e+00 1.0000e+00
       21 -1    0    0  501  502 -0.0000000000e+00 -0.0000000000e+00 -8.6581546566e+01 8.6581546566e+01 0.0000000000e+00 0.0000e+00 1.0000e+00
       25  2    1    2    0    0 +0.0000000000e+00 +0.0000000000e+00 -4.1467212872e+01 1.3169588026e+02 1.2499710050e+02 0.0000e+00 0.0000e+00
  9000006  2    3    3    0    0 +3.2319953611e+01 -1.7445361993e+01 -5.3329430389e+01 7.6111419638e+01 3.9999999964e+01 0.0000e+00 0.0000e+00
  9000006  2    3    3    0    0 -3.2319953611e+01 +1.7445361993e+01 +1.1862217517e+01 5.5584460622e+01 4.0000000021e+01 0.0000e+00 0.0000e+00
      -11  1    5    5    0    0 +6.0831764229e+00 -3.2870739326e+00 +9.6694259117e+00 1.1887291024e+01 0.0000000000e+00 0.0000e+00 1.0000e+00
       13  1    4    4    0    0 +3.0161046680e+01 -2.0079955296e+01 -5.9150960609e+01 6.9366630901e+01 0.0000000000e+00 0.0000e+00 1.0000e+00
      -11  1    4    4    0    0 +2.1589069309e+00 +2.6345933024e+00 +5.8215302200e+00 6.7447887371e+00 0.0000000000e+00 0.0000e+00 1.0000e+00
       13  1    5    5    0    0 -3.8403130034e+01 +2.0732435926e+01 +2.1927916051e+00 4.3697169598e+01 0.0000000000e+00 0.0000e+00 1.0000e+00
<mgrwt>
<rscale>  0 0.12499710E+03</rscale>
<asrwt>0</asrwt>
<pdfrwt beam="1">  1       21 0.11278584E-01 0.12499710E+03</pdfrwt>
<pdfrwt beam="2">  1       21 0.21645386E-01 0.12499710E+03</pdfrwt>
<totfact> 0.13017690E+06</totfact>
</mgrwt>
</event>
<event>
 9      1 +9.5563000e+06 1.24981700e+02 7.81860800e-03 1.23509800e-01
       21 -1    0    0  502  501 +0.0000000000e+00 +0.0000000000e+00 +2.9370796463e+02 2.9370796463e+02 0.0000000000e+00 0.0000e+00 1.0000e+00
       21 -1    0    0  501  502 -0.0000000000e+00 -0.0000000000e+00 -1.3295885088e+01 1.3295885088e+01 0.0000000000e+00 0.0000e+00 1.0000e+00
       25  2    1    2    0    0 +0.0000000000e+00 -1.7763568394e-15 +2.8041207954e+02 3.0700384972e+02 1.2498171622e+02 0.0000e+00 0.0000e+00
  9000006  2    3    3    0    0 +3.6307244489e+01 -1.2267128810e+01 +2.1124664583e+02 2.1838920259e+02 3.9999999787e+01 0.0000e+00 0.0000e+00
  9000006  2    3    3    0    0 -3.6307244489e+01 +1.2267128810e+01 +6.9165433710e+01 8.8614647124e+01 4.0000000163e+01 0.0000e+00 0.0000e+00
      -11  1    5    5    0    0 +3.5354582040e+00 -7.2615041645e+00 +2.3904461478e+01 2.5231967542e+01 0.0000000000e+00 0.0000e+00 1.0000e+00
       13  1    4    4    0    0 +1.6663909652e+01 -1.1424272373e+01 +1.8218249776e+02 1.8329937909e+02 0.0000000000e+00 0.0000e+00 1.0000e+00
      -11  1    4    4    0    0 +1.9643334837e+01 -8.4285643737e-01 +2.9064148069e+01 3.5089823504e+01 0.0000000000e+00 0.0000e+00 1.0000e+00
       13  1    5    5    0    0 -3.9842702693e+01 +1.9528632975e+01 +4.5260972231e+01 6.3382679582e+01 0.0000000000e+00 0.0000e+00 1.0000e+00
<mgrwt>
<rscale>  0 0.12498172E+03</rscale>
<asrwt>0</asrwt>
<pdfrwt beam="1">  1       21 0.73426970E-01 0.12498172E+03</pdfrwt>
<pdfrwt beam="2">  1       21 0.33239722E-02 0.12498172E+03</pdfrwt>
<totfact> 0.89375344E+05</totfact>
</mgrwt>
</event>
<event>
 9      1 +9.5563000e+06 1.24992100e+02 7.81860800e-03 1.23508200e-01
       21 -1    0    0  502  501 +0.0000000000e+00 +0.0000000000e+00 +3.2042817203e+02 3.2042817203e+02 0.0000000000e+00 0.0000e+00 -1.0000e+00
       21 -1    0    0  501  502 -0.0000000000e+00 -0.0000000000e+00 -1.2189184245e+01 1.2189184245e+01 0.0000000000e+00 0.0000e+00 -1.0000e+00
       25  2    1    2    0    0 +0.0000000000e+00 +0.0000000000e+00 +3.0823898778e+02 3.3261735628e+02 1.2499212817e+02 0.0000e+00 0.0000e+00
  9000006  2    3    3    0    0 +2.3653767198e+01 +3.5250879155e+01 +2.1383942065e+02 2.2165158021e+02 4.0000000021e+01 0.0000e+00 0.0000e+00
  9000006  2    3    3    0    0 -2.3653767198e+01 -3.5250879155e+01 +9.4399567134e+01 1.1096577606e+02 3.9999999985e+01 0.0000e+00 0.0000e+00
      -11  1    4    4    0    0 +1.1204860159e+01 -7.6680865830e+00 +5.4283874352e+01 5.5956120824e+01 0.0000000000e+00 0.0000e+00 1.0000e+00
       13  1    4    4    0    0 +1.2448907039e+01 +4.2918965738e+01 +1.5955554630e+02 1.6569545939e+02 0.0000000000e+00 0.0000e+00 1.0000e+00
      -11  1    5    5    0    0 -5.8358553309e+00 +4.9398012290e+00 +9.6691343522e-01 7.7067350556e+00 0.0000000000e+00 0.0000e+00 1.0000e+00
       13  1    5    5    0    0 -1.7817911867e+01 -4.0190680384e+01 +9.3432653698e+01 1.0325904101e+02 0.0000000000e+00 0.0000e+00 1.0000e+00
<mgrwt>
<rscale>  0 0.12499213E+03</rscale>
<asrwt>0</asrwt>
<pdfrwt beam="1">  1       21 0.80107015E-01 0.12499213E+03</pdfrwt>
<pdfrwt beam="2">  1       21 0.30472971E-02 0.12499213E+03</pdfrwt>
<totfact> 0.85013608E+05</totfact>
</mgrwt>
</event>
<event>
 9      1 +9.5563000e+06 1.24999900e+02 7.81860800e-03 1.23506900e-01
       21 -1    0    0  502  501 +0.0000000000e+00 +0.0000000000e+00 +2.1199880098e+01 2.1199880098e+01 0.0000000000e+00 0.0000e+00 -1.0000e+00
       21 -1    0    0  501  502 -0.0000000000e+00 -0.0000000000e+00 -1.8425792025e+02 1.8425792025e+02 0.0000000000e+00 0.0000e+00 -1.0000e+00
       25  2    1    2    0    0 +0.0000000000e+00 -7.1054273576e-15 -1.6305804015e+02 2.0545780035e+02 1.2499993306e+02 0.0000e+00 0.0000e+00
  9000006  2    3    3    0    0 +3.4396761360e+01 +3.2575650174e+01 -9.4464518741e+01 1.1299493561e+02 3.9999999964e+01 0.0000e+00 0.0000e+00
  9000006  2    3    3    0    0 -3.4396761360e+01 -3.2575650174e+01 -6.8593521410e+01 9.2462864733e+01 3.9999999986e+01 0.0000e+00 0.0000e+00
      -11  1    4    4    0    0 -4.7602276674e+00 -2.8202095197e+00 -2.5801520964e+01 2.6388100221e+01 0.0000000000e+00 0.0000e+00 1.0000e+00
       13  1    4    4    0    0 +3.9156989028e+01 +3.5395859694e+01 -6.8662997776e+01 8.6606835393e+01 0.0000000000e+00 0.0000e+00 1.0000e+00
      -11  1    5    5    0    0 -3.0860585138e+01 -2.9931600931e+01 -7.3939236716e+01 8.5529452094e+01 0.0000000000e+00 0.0000e+00 1.0000e+00
       13  1    5    5    0    0 -3.5361762223e+00 -2.6440492430e+00 +5.3457153068e+00 6.9334126385e+00 0.0000000000e+00 0.0000e+00 1.0000e+00
<mgrwt>
<rscale>  0 0.12499993E+03</rscale>
<asrwt>0</asrwt>
<pdfrwt beam="1">  1       21 0.52999702E-02 0.12499993E+03</pdfrwt>
<pdfrwt beam="2">  1       21 0.46064479E-01 0.12499993E+03</pdfrwt>
<totfact> 0.11011698E+06</totfact>
</mgrwt>
</event>
<event>
 9      1 +9.5563000e+06 1.25004400e+02 7.81860800e-03 1.23506200e-01
       21 -1    0    0  502  501 +0.0000000000e+00 +0.0000000000e+00 +8.5898968362e+01 8.5898968362e+01 0.0000000000e+00 0.0000e+00 1.0000e+00
       21 -1    0    0  501  502 -0.0000000000e+00 -0.0000000000e+00 -4.5478171425e+01 4.5478171425e+01 0.0000000000e+00 0.0000e+00 1.0000e+00
       25  2    1    2    0    0 -7.1054273576e-15 -7.1054273576e-15 +4.0420796937e+01 1.3137713979e+02 1.2500444806e+02 0.0000e+00 0.0000e+00
  9000006  2    3    3    0    0 -3.3634579134e+01 -1.9080577049e+01 -9.7226897616e+00 5.6479058383e+01 4.0000000071e+01 0.0000e+00 0.0000e+00
  9000006  2    3    3    0    0 +3.3634579134e+01 +1.9080577049e+01 +5.0143486698e+01 7.4898081404e+01 4.0000000071e+01 0.0000e+00 0.0000e+00
      -11  1    5    5    0    0 +1.9999655600e+01 -1.0513029877e+01 +2.5323640177e+01 3.3938131550e+01 0.0000000000e+00 0.0000e+00 1.0000e+00
       13  1    4    4    0    0 -2.4699377336e+01 +5.0940412997e+00 -1.6110948833e+01 2.9926095132e+01 0.0000000000e+00 0.0000e+00 1.0000e+00
      -11  1    4    4    0    0 -8.9352017971e+00 -2.4174618348e+01 +6.3882590717e+00 2.6552963251e+01 0.0000000000e+00 0.0000e+00 1.0000e+00
       13  1    5    5    0    0 +1.3634923534e+01 +2.9593606926e+01 +2.4819846522e+01 4.0959949854e+01 0.0000000000e+00 0.0000e+00 1.0000e+00
<mgrwt>
<rscale>  0 0.12500445E+03</rscale>
<asrwt>0</asrwt>
<pdfrwt beam="1">  1       21 0.21474742E-01 0.12500445E+03</pdfrwt>
<pdfrwt beam="2">  1       21 0.11369543E-01 0.12500445E+03</pdfrwt>
<totfact> 0.13025083E+06</totfact>
</mgrwt>
</event>
<event>
 9      1 +9.5563000e+06 1.25001300e+02 7.81860800e-03 1.23506700e-01
       21 -1    0    0  502  501 +0.0000000000e+00 +0.0000000000e+00 +7.2201973582e+02 7.2201973582e+02 0.0000000000e+00 0.0000e+00 -1.0000e+00
       21 -1    0    0  501  502 -0.0000000000e+00 -0.0000000000e+00 -5.4102801959e+00 5.4102801959e+00 0.0000000000e+00 0.0000e+00 -1.0000e+00
       25  2    1    2    0    0 +0.0000000000e+00 +1.7763568394e-15 +7.1660945562e+02 7.2743001601e+02 1.2500126524e+02 0.0000e+00 0.0000e+00
  9000006  2    3    3    0    0 +1.2833861711e+01 +1.5840608876e+01 +6.1134385607e+02 6.1299016573e+02 4.0000000337e+01 0.0000e+00 0.0000e+00
  9000006  2    3    3    0    0 -1.2833861711e+01 -1.5840608876e+01 +1.0526559955e+02 1.1443985028e+02 3.9999999858e+01 0.0000e+00 0.0000e+00
      -11  1    4    4    0    0 +1.0445393817e+01 +2.8512690509e+01 +3.4479208800e+02 3.4612665849e+02 0.0000000000e+00 0.0000e+00 1.0000e+00
       13  1    4    4    0    0 +2.3884678939e+00 -1.2672081633e+01 +2.6655176808e+02 2.6686350724e+02 0.0000000000e+00 0.0000e+00 1.0000e+00
      -11  1    5    5    0    0 +1.0556944468e+01 +3.9164275870e+00 +5.0072310849e+01 5.1322741502e+01 0.0000000000e+00 0.0000e+00 1.0000e+00
       13  1    5    5    0    0 -2.3390806178e+01 -1.9757036463e+01 +5.5193288697e+01 6.3117108779e+01 0.0000000000e+00 0.0000e+00 1.0000e+00
<mgrwt>
<rscale>  0 0.12500127E+03</rscale>
<asrwt>0</asrwt>
<pdfrwt beam="1">  1       21 0.18050461E+00 0.12500127E+03</pdfrwt>
<pdfrwt beam="2">  1       21 0.13525725E-02 0.12500127E+03</pdfrwt>
<totfact> 0.42859485E+05</totfact>
</mgrwt>
</event>
<event>
 8      1 +9.5563000e+06 1.24990500e+02 7.81860800e-03 1.23508400e-01
       21 -1    0    0  502  501 +0.0000000000e+00 +0.0000000000e+00 +2.9258147639e+02 2.9258147639e+02 0.0000000000e+00 0.0000e+00 1.0000e+00
       21 -1    0    0  501  502 -0.0000000000e+00 -0.0000000000e+00 -1.3348950191e+01 1.3348950191e+01 0.0000000000e+00 0.0000e+00 1.0000e+00
       25  2    1    2    0    0 +1.7763568394e-15 +0.0000000000e+00 +2.7923252620e+02 3.0593042658e+02 1.2499048852e+02 0.0000e+00 0.0000e+00
  9000006  2    3    3    0    0 -2.7287785639e+00 +4.3806730085e+01 +1.8727792924e+02 1.9646755106e+02 4.0000000102e+01 0.0000e+00 0.0000e+00
      -11  1    3    3    0    0 +2.0075857373e+01 -3.3898967974e+01 +6.0096235456e+01 7.1859151087e+01 0.0000000000e+00 0.0000e+00 1.0000e+00
       13  1    4    4    0    0 -1.5165573720e+01 +3.1444800781e+00 +7.0706234064e+01 7.2382690726e+01 0.0000000000e+00 0.0000e+00 1.0000e+00
      -11  1    4    4    0    0 +1.2436795156e+01 +4.0662250007e+01 +1.1657169517e+02 1.2408486034e+02 0.0000000000e+00 0.0000e+00 1.0000e+00
       13  1    3    3    0    0 -1.7347078809e+01 -9.9077621116e+00 +3.1858361504e+01 3.7603724430e+01 0.0000000000e+00 0.0000e+00 1.0000e+00
<mgrwt>
<rscale>  0 0.12499049E+03</rscale>
<asrwt>0</asrwt>
<pdfrwt beam="1">  1       21 0.73145348E-01 0.12499049E+03</pdfrwt>
<pdfrwt beam="2">  1       21 0.33372385E-02 0.12499049E+03</pdfrwt>
<totfact> 0.89543709E+05</totfact>
</mgrwt>
</event>
<event>
 9      1 +9.5563000e+06 1.25001000e+02 7.81860800e-03 1.23506800e-01
       21 -1    0    0  502  501 +0.0000000000e+00 +0.0000000000e+00 +2.5822268512e+02 2.5822268512e+02 0.0000000000e+00 0.0000e+00 1.0000e+00
       21 -1    0    0  501  502 -0.0000000000e+00 -0.0000000000e+00 -1.5127690498e+01 1.5127690498e+01 0.0000000000e+00 0.0000e+00 1.0000e+00
       25  2    1    2    0    0 -3.5527136788e-15 +0.0000000000e+00 +2.4309499462e+02 2.7335037561e+02 1.2500100575e+02 0.0000e+00 0.0000e+00
  9000006  2    3    3    0    0 +1.8811377449e+01 -3.5378774173e+01 +1.7943692481e+02 1.8815720973e+02 4.0000000019e+01 0.0000e+00 0.0000e+00
  9000006  2    3    3    0    0 -1.8811377449e+01 +3.5378774173e+01 +6.3658069804e+01 8.5193165888e+01 4.0000000991e+01 0.0000e+00 0.0000e+00
      -11  1    5    5    0    0 -1.7727550266e+01 +3.4209668941e+01 +2.3767976614e+01 4.5271229272e+01 0.0000000000e+00 0.0000e+00 1.0000e+00
       13  1    4    4    0    0 +1.4230259623e+01 +5.0486888004e+00 +3.5434868203e+01 3.8517780726e+01 0.0000000000e+00 0.0000e+00 1.0000e+00
      -11  1    4    4    0    0 +4.5811178266e+00 -4.0427462974e+01 +1.4400205661e+02 1.4963942900e+02 0.0000000000e+00 0.0000e+00 1.0000e+00
       13  1    5    5    0    0 -1.0838271832e+00 +1.1691052322e+00 +3.9890093190e+01 3.9921936616e+01 0.0000000000e+00 0.0000e+00 1.0000e+00
<mgrwt>
<rscale>  0 0.12500101E+03</rscale>
<asrwt>0</asrwt>
<pdfrwt beam="1">  1       21 0.64555657E-01 0.12500101E+03</pdfrwt>
<pdfrwt beam="2">  1       21 0.37819235E-02 0.12500101E+03</pdfrwt>
<totfact> 0.95532237E+05</totfact>
</mgrwt>
</event>
<event>
 9      1 +9.5563000e+06 1.25000200e+02 7.81860800e-03 1.23506900e-01
       21 -1    0    0  502  501 +0.0000000000e+00 +0.0000000000e+00 +7.8389648961e+01 7.8389648961e+01 0.0000000000e+00 0.0000e+00 1.0000e+00
       21 -1    0    0  501  502 -0.0000000000e+00 -0.0000000000e+00 -4.9831395320e+01 4.9831395320e+01 0.0000000000e+00 0.0000e+00 1.0000e+00
       25  2    1    2    0    0 +0.0000000000e+00 +0.0000000000e+00 +2.8558253641e+01 1.2822104428e+02 1.2500024938e+02 0.0000e+00 0.0000e+00
  9000006  2    3    3    0    0 +4.1984037810e+01 +1.3315232640e+01 +3.3911520701e+01 6.8483180889e+01 3.9999999716e+01 0.0000e+00 0.0000e+00
  9000006  2    3    3    0    0 -4.1984037810e+01 -1.3315232640e+01 -5.3532670600e+00 5.9737863393e+01 4.0000000043e+01 0.0000e+00 0.0000e+00
      -11  1    4    4    0    0 +4.1740067862e+01 -3.0234659830e-01 +1.3357715373e+01 4.3826398878e+01 0.0000000000e+00 0.0000e+00 1.0000e+00
       13  1    4    4    0    0 +2.4396994776e-01 +1.3617579239e+01 +2.0553805328e+01 2.4656782011e+01 0.0000000000e+00 0.0000e+00 1.0000e+00
      -11  1    5    5    0    0 -1.4591011186e+01 -1.2234176625e+01 +1.6093286767e+01 2.4931236714e+01 0.0000000000e+00 0.0000e+00 1.0000e+00
       13  1    5    5    0    0 -2.7393026624e+01 -1.0810560156e+00 -2.1446553827e+01 3.4806626679e+01 0.0000000000e+00 0.0000e+00 1.0000e+00
<mgrwt>
<rscale>  0 0.12500025E+03</rscale>
<asrwt>0</asrwt>
<pdfrwt beam="1">  1       21 0.19597412E-01 0.12500025E+03</pdfrwt>
<pdfrwt beam="2">  1       21 0.12457849E-01 0.12500025E+03</pdfrwt>
<totfact> 0.13125733E+06</totfact>
</mgrwt>
</event>
<event>
 8      1 +9.5563000e+06 1.25001800e+02 7.81860800e-03 1.23506600e-01
       21 -1    0    0  502  501 +0.0000000000e+00 +0.0000000000e+00 +6.1546297373e+02 6.1546297373e+02 0.0000000000e+00 0.0000e+00 -1.0000e+00
       21 -1    0    0  501  502 -0.0000000000e+00 -0.0000000000e+00 -6.3470349617e+00 6.3470349617e+00 0.0000000000e+00 0.0000e+00 -1.0000e+00
       25  2    1    2    0    0 +1.7763568394e-15 +0.0000000000e+00 +6.0911593877e+02 6.2181000870e+02 1.2500184018e+02 0.0000e+00 0.0000e+00
  9000006  2    3    3    0    0 -1.4360963931e+01 -3.3905771623e+01 +1.5119399214e+02 1.6067190764e+02 4.0000000106e+01 0.0000e+00 0.0000e+00
      -11  1    3    3    0    0 +1.9147350599e+01 +2.6102567239e+01 +1.6908000029e+02 1.7215112997e+02 0.0000000000e+00 0.0000e+00 1.0000e+00
       13  1    4    4    0    0 +5.4447981477e+00 -2.7951670773e+01 +1.1935819419e+02 1.2270827294e+02 0.0000000000e+00 0.0000e+00 1.0000e+00
      -11  1    4    4    0    0 -1.9805762079e+01 -5.9541008501e+00 +3.1835797950e+01 3.7963634699e+01 0.0000000000e+00 0.0000e+00 1.0000e+00
       13  1    3    3    0    0 -4.7863866680e+00 +7.8032043838e+00 +2.8884194634e+02 2.8898697109e+02 0.0000000000e+00 0.0000e+00 1.0000e+00
<mgrwt>
<rscale>  0 0.12500184E+03</rscale>
<asrwt>0</asrwt>
<pdfrwt beam="1">  1       21 0.15386554E+00 0.12500184E+03</pdfrwt>
<pdfrwt beam="2">  1       21 0.15867608E-02 0.12500184E+03</pdfrwt>
<totfact> 0.51003527E+05</totfact>
</mgrwt>
</event>
<event>
 9      1 +9.5563000e+06 1.24999100e+02 7.81860800e-03 1.23507100e-01
       21 -1    0    0  502  501 +0.0000000000e+00 +0.0000000000e+00 +2.1174990310e+01 2.1174990310e+01 0.0000000000e+00 0.0000e+00 -1.0000e+00
       21 -1    0    0  501  502 -0.0000000000e+00 -0.0000000000e+00 -1.8447190871e+02 1.8447190871e+02 0.0000000000e+00 0.0000e+00 -1.0000e+00
       25  2    1    2    0    0 +0.0000000000e+00 +0.0000000000e+00 -1.6329691840e+02 2.0564689902e+02 1.2499905407e+02 0.0000e+00 0.0000e+00
  9000006  2    3    3    0    0 -2.3180138783e+01 -3.9058365212e+01 -1.0731107446e+02 1.2320122329e+02 3.9999999886e+01 0.0000e+00 0.0000e+00
  9000006  2    3    3    0    0 +2.3180138783e+01 +3.9058365212e+01 -5.5985843944e+01 8.2445675736e+01 3.9999999980e+01 0.0000e+00 0.0000e+00
      -11  1    4    4    0    0 +8.4085013925e+00 +1.8403639622e+00 -1.9445904989e+01 2.1265771936e+01 0.0000000000e+00 0.0000e+00 1.0000e+00
       13  1    4    4    0    0 -3.1588640176e+01 -4.0898729174e+01 -8.7865169470e+01 1.0193545135e+02 0.0000000000e+00 0.0000e+00 1.0000e+00
      -11  1    5    5    0    0 +1.6483382802e+01 +2.8524316007e+01 -9.4619480443e+00 3.4276332549e+01 0.0000000000e+00 0.0000e+00 1.0000e+00
       13  1    5    5    0    0 +6.6967559816e+00 +1.0534049205e+01 -4.6523895900e+01 4.8169343187e+01 0.0000000000e+00 0.0000e+00 1.0000e+00
<mgrwt>
<rscale>  0 0.12499905E+03</rscale>
<asrwt>0</asrwt>
<pdfrwt beam="1">  1       21 0.52937476E-02 0.12499905E+03</pdfrwt>
<pdfrwt beam="2">  1       21 0.46117977E-01 0.12499905E+03</pdfrwt>
<totfact> 0.11007435E+06</totfact>
</mgrwt>
</event>
<event>
 9      1 +9.5563000e+06 1.25011100e+02 7.81860800e-03 1.23505200e-01
       21 -1    0    0  502  501 +0.0000000000e+00 +0.0000000000e+00 +8.1094770789e+01 8.1094770789e+01 0.0000000000e+00 0.0000e+00 1.0000e+00
       21 -1    0    0  501  502 -0.0000000000e+00 -0.0000000000e+00 -4.8177467423e+01 4.8177467423e+01 0.0000000000e+00 0.0000e+00 1.0000e+00
       25  2    1    2    0    0 +3.5527136788e-15 +0.0000000000e+00 +3.2917303366e+01 1.2927223821e+02 1.2501105036e+02 0.0000e+00 0.0000e+00
  9000006  2    3    3    0    0 +9.8676143137e+00 -3.7523224502e+01 -1.2818572332e+01 5.7181097905e+01 3.9999999647e+01 0.0000e+00 0.0000e+00
  9000006  2    3    3    0    0 -9.8676143137e+00 +3.7523224502e+01 +4.5735875697e+01 7.2091140307e+01 3.9999999947e+01 0.0000e+00 0.0000e+00
      -11  1    5    5    0    0 -1.5709215244e+01 +1.7344562635e+01 +1.8957826968e+00 2.3477804170e+01 0.0000000000e+00 0.0000e+00 1.0000e+00
       13  1    4    4    0    0 -1.0470564147e+01 -1.7208808124e+00 -1.1970585578e+01 1.5996532856e+01 0.0000000000e+00 0.0000e+00 1.0000e+00
      -11  1    4    4    0    0 +2.0338178461e+01 -3.5802343689e+01 -8.4798675359e-01 4.1184565049e+01 0.0000000000e+00 0.0000e+00 1.0000e+00
       13  1    5    5    0    0 +5.8416009305e+00 +2.0178661866e+01 +4.3840093001e+01 4.8613336138e+01 0.0000000000e+00 0.0000e+00 1.0000e+00
<mgrwt>
<rscale>  0 0.12501105E+03</rscale>
<asrwt>0</asrwt>
<pdfrwt beam="1">  1       21 0.20273692E-01 0.12501105E+03</pdfrwt>
<pdfrwt beam="2">  1       21 0.12044367E-01 0.12501105E+03</pdfrwt>
<totfact> 0.13088737E+06</totfact>
</mgrwt>
</event>
<event>
 9      1 +9.5563000e+06 1.25001700e+02 7.81860800e-03 1.23506700e-01
       21 -1    0    0  502  501 +0.0000000000e+00 +0.0000000000e+00 +3.3915634540e+02 3.3915634540e+02 0.0000000000e+00 0.0000e+00 1.0000e+00
       21 -1    0    0  501  502 -0.0000000000e+00 -0.0000000000e+00 -1.1517870739e+01 1.1517870739e+01 0.0000000000e+00 0.0000e+00 1.0000e+00
       25  2    1    2    0    0 +3.5527136788e-15 +0.0000000000e+00 +3.2763847467e+02 3.5067421614e+02 1.2500174314e+02 0.0000e+00 0.0000e+00
  9000006  2    3    3    0    0 -2.9913443588e+01 +3.7570337955e+01 +1.6348096550e+02 1.7502105729e+02 4.0000000157e+01 0.0000e+00 0.0000e+00
  9000006  2    3    3    0    0 +2.9913443588e+01 -3.7570337955e+01 +1.6415750916e+02 1.7565315885e+02 3.9999999987e+01 0.0000e+00 0.0000e+00
      -11  1    5    5    0    0 -4.1383067921e+00 -3.6101880982e-01 +5.7721906226e+01 5.7871187788e+01 0.0000000000e+00 0.0000e+00 1.0000e+00
       13  1    4    4    0    0 -6.5394820834e+00 -8.4178187942e+00 +2.2475267638e+01 2.4874930242e+01 0.0000000000e+00 0.0000e+00 1.0000e+00
      -11  1    4    4    0    0 -2.3373961504e+01 +4.5988156749e+01 +1.4100569786e+02 1.5014612705e+02 0.0000000000e+00 0.0000e+00 1.0000e+00
       13  1    5    5    0    0 +3.4051750380e+01 -3.7209319145e+01 +1.0643560294e+02 1.1778197106e+02 0.0000000000e+00 0.0000e+00 1.0000e+00
<mgrwt>
<rscale>  0 0.12500174E+03</rscale>
<asrwt>0</asrwt>
<pdfrwt beam="1">  1       21 0.84789053E-01 0.12500174E+03</pdfrwt>
<pdfrwt beam="2">  1       21 0.28794688E-02 0.12500174E+03</pdfrwt>
<totfact> 0.82112433E+05</totfact>
</mgrwt>
</event>
<event>
 9      1 +9.5563000e+06 1.25003800e+02 7.81860800e-03 1.23506300e-01
       21 -1    0    0  502  501 +0.0000000000e+00 +0.0000000000e+00 +7.3286463657e+01 7.3286463657e+01 0.0000000000e+00 0.0000e+00 1.0000e+00
       21 -1    0    0  501  502 -0.0000000000e+00 -0.0000000000e+00 -5.3304318329e+01 5.3304318329e+01 0.0000000000e+00 0.0000e+00 1.0000e+00
       25  2    1    2    0    0 +0.0000000000e+00 +8.8817841970e-16 +1.9982145328e+01 1.2659078199e+02 1.2500375975e+02 0.0000e+00 0.0000e+00
  9000006  2    3    3    0    0 +3.4300186974e+01 +4.4901801976e+00 +4.3727987782e+01 6.8620707064e+01 3.9999999724e+01 0.0000e+00 0.0000e+00
  9000006  2    3    3    0    0 -3.4300186974e+01 -4.4901801976e+00 -2.3745842454e+01 5.7970074922e+01 4.0000000100e+01 0.0000e+00 0.0000e+00
      -11  1    4    4    0    0 +9.2653197180e+00 +1.6420130408e+00 +4.2354254439e+01 4.3386924590e+01 0.0000000000e+00 0.0000e+00 1.0000e+00
       13  1    4    4    0    0 +2.5034867256e+01 +2.8481671567e+00 +1.3737333430e+00 2.5233782474e+01 0.0000000000e+00 0.0000e+00 1.0000e+00
      -11  1    5    5    0    0 -1.9686949956e+01 +1.7302285836e+01 -8.1548707341e+00 2.7448989242e+01 0.0000000000e+00 0.0000e+00 1.0000e+00
       13  1    5    5    0    0 -1.4613237018e+01 -2.1792466033e+01 -1.5590971720e+01 3.0521085681e+01 0.0000000000e+00 0.0000e+00 1.0000e+00
<mgrwt>
<rscale>  0 0.12500376E+03</rscale>
<asrwt>0</asrwt>
<pdfrwt beam="1">  1       21 0.18321616E-01 0.12500376E+03</pdfrwt>
<pdfrwt beam="2">  1       21 0.13326080E-01 0.12500376E+03</pdfrwt>
<totfact> 0.13176008E+06</totfact>
</mgrwt>
</event>
<event>
 8      1 +9.5563000e+06 1.24997700e+02 7.81860800e-03 1.23507300e-01
       21 -1    0    0  502  501 +0.0000000000e+00 +0.0000000000e+00 +1.2542100763e+01 1.2542100763e+01 0.0000000000e+00 0.0000e+00 1.0000e+00
       21 -1    0    0  501  502 -0.0000000000e+00 -0.0000000000e+00 -3.1143933275e+02 3.1143933275e+02 0.0000000000e+00 0.0000e+00 1.0000e+00
       25  2    1    2    0    0 +0.0000000000e+00 +0.0000000000e+00 -2.9889723199e+02 3.2398143351e+02 1.2499765586e+02 0.0000e+00 0.0000e+00
  9000006  2    3    3    0    0 -2.3402001509e+01 +1.3623318769e+01 -4.6655840435e+01 6.7156652222e+01 4.0000000026e+01 0.0000e+00 0.0000e+00
      -11  1    3    3    0    0 +2.3433760262e+01 -2.0332235585e+01 -1.0644623083e+02 1.1087533983e+02 0.0000000000e+00 0.0000e+00 1.0000e+00
       13  1    4    4    0    0 +3.7019127337e-01 +1.7495321539e+01 -3.7513786465e+01 4.1394534570e+01 0.0000000000e+00 0.0000e+00 1.0000e+00
      -11  1    4    4    0    0 -2.3772192782e+01 -3.8720027700e+00 -9.1420539707e+00 2.5762117652e+01 0.0000000000e+00 0.0000e+00 1.0000e+00
       13  1    3    3    0    0 -3.1758753387e-02 +6.7089168159e+00 -1.4579516072e+02 1.4594944146e+02 0.0000000000e+00 0.0000e+00 1.0000e+00
<mgrwt>
<rscale>  0 0.12499766E+03</rscale>
<asrwt>0</asrwt>
<pdfrwt beam="1">  1       21 0.31355253E-02 0.12499766E+03</pdfrwt>
<pdfrwt beam="2">  1       21 0.77859831E-01 0.12499766E+03</pdfrwt>
<totfact> 0.86429362E+05</totfact>
</mgrwt>
</event>
<event>
 9      1 +9.5563000e+06 1.24997700e+02 7.81860800e-03 1.23507300e-01
       21 -1    0    0  502  501 +0.0000000000e+00 +0.0000000000e+00 +6.4255766626e+01 6.4255766626e+01 0.0000000000e+00 0.0000e+00 1.0000e+00
       21 -1    0    0  501  502 -0.0000000000e+00 -0.0000000000e+00 -6.0789957974e+01 6.0789957974e+01 0.0000000000e+00 0.0000e+00 1.0000e+00
       25  2    1    2    0    0 +0.0000000000e+00 +3.5527136788e-15 +3.4658086523e+00 1.2504572460e+02 1.2499768562e+02 0.0000e+00 0.0000e+00
  9000006  2    3    3    0    0 -3.9046573150e+01 -2.7607513380e+01 -2.6614705471e+00 6.2401066239e+01 3.9999999656e+01 0.0000e+00 0.0000e+00
  9000006  2    3    3    0    0 +3.9046573150e+01 +2.7607513380e+01 +6.1272791994e+00 6.2644658362e+01 4.0000000013e+01 0.0000e+00 0.0000e+00
      -11  1    5    5    0    0 -5.1101465327e-01 -8.6588132262e+00 +5.9777061359e-01 8.6944529539e+00 0.0000000000e+00 0.0000e+00 1.0000e+00
       13  1    4    4    0    0 -8.6118699816e+00 +5.7939289328e+00 -1.2405238678e+01 1.6174790995e+01 0.0000000000e+00 0.0000e+00 1.0000e+00
      -11  1    4    4    0    0 -3.0434703169e+01 -3.3401442313e+01 +9.7437681314e+00 4.6226275244e+01 0.0000000000e+00 0.0000e+00 1.0000e+00
       13  1    5    5    0    0 +3.9557587804e+01 +3.6266326606e+01 +5.5295085858e+00 5.3950205408e+01 0.0000000000e+00 0.0000e+00 1.0000e+00
<mgrwt>
<rscale>  0 0.12499769E+03</rscale>
<asrwt>0</asrwt>
<pdfrwt beam="1">  1       21 0.16063942E-01 0.12499769E+03</pdfrwt>
<pdfrwt beam="2">  1       21 0.15197489E-01 0.12499769E+03</pdfrwt>
<totfact> 0.13226074E+06</totfact>
</mgrwt>
</event>
<event>
 8      1 +9.5563000e+06 1.24999100e+02 7.81860800e-03 1.23507100e-01
       21 -1    0    0  502  501 +0.0000000000e+00 +0.0000000000e+00 +5.4470543601e+00 5.4470543601e+00 0.0000000000e+00 0.0000e+00 -1.0000e+00
       21 -1    0    0  501  502 -0.0000000000e+00 -0.0000000000e+00 -7.1712011701e+02 7.1712011701e+02 0.0000000000e+00 0.0000e+00 -1.0000e+00
       25  2    1    2    0    0 +0.0000000000e+00 +7.1054273576e-15 -7.1167306265e+02 7.2256717137e+02 1.2499907616e+02 0.0000e+00 0.0000e+00
  9000006  2    3    3    0    0 +1.7408102870e+01 -4.4745329568e+01 -3.6163384048e+02 3.6699348923e+02 3.9999999921e+01 0.0000e+00 0.0000e+00
      -11  1    3    3    0    0 -2.3802993684e+01 +4.3611014807e+01 -3.4003866331e+02 3.4364923347e+02 0.0000000000e+00 0.0000e+00 1.0000e+00
       13  1    4    4    0    0 +2.2707572455e+01 -3.6336251164e+01 -1.7776173452e+02 1.8285292246e+02 0.0000000000e+00 0.0000e+00 1.0000e+00
      -11  1    4    4    0    0 -5.2994695850e+00 -8.4090784033e+00 -1.8387210597e+02 1.8414056677e+02 0.0000000000e+00 0.0000e+00 1.0000e+00
       13  1    3    3    0    0 +6.3948908139e+00 +1.1343147603e+00 -1.0000558861e+01 1.1924448668e+01 0.0000000000e+00 0.0000e+00 1.0000e+00
<mgrwt>
<rscale>  0 0.12499908E+03</rscale>
<asrwt>0</asrwt>
<pdfrwt beam="1">  1       21 0.13617636E-02 0.12499908E+03</pdfrwt>
<pdfrwt beam="2">  1       21 0.17928002E+00 0.12499908E+03</pdfrwt>
<totfact> 0.43205275E+05</totfact>
</mgrwt>
</event>
<event>
 9      1 +9.5563000e+06 1.25001800e+02 7.81860800e-03 1.23506600e-01
       21 -1    0    0  502  501 +0.0000000000e+00 +0.0000000000e+00 +6.4786922472e+01 6.4786922472e+01 0.0000000000e+00 0.0000e+00 1.0000e+00
       21 -1    0    0  501  502 -0.0000000000e+00 -0.0000000000e+00 -6.0295542891e+01 6.0295542891e+01 0.0000000000e+00 0.0000e+00 1.0000e+00
       25  2    1    2    0    0 +0.0000000000e+00 +0.0000000000e+00 +4.4913795812e+00 1.2508246536e+02 1.2500180259e+02 0.0000e+00 0.0000e+00
  9000006  2    3    3    0    0 +2.0950330926e+01 -3.5359077435e+01 +2.7104867664e+01 6.3433859815e+01 3.9999999962e+01 0.0000e+00 0.0000e+00
  9000006  2    3    3    0    0 -2.0950330926e+01 +3.5359077435e+01 -2.2613488083e+01 6.1648605547e+01 3.9999999996e+01 0.0000e+00 0.0000e+00
      -11  1    5    5    0    0 +2.3868186695e+00 -7.0944020275e+00 +1.3416947910e+00 7.6044453052e+00 0.0000000000e+00 0.0000e+00 1.0000e+00
       13  1    4    4    0    0 +9.1469974174e+00 -2.8161809427e+01 +3.6289196535e+01 4.6836533359e+01 0.0000000000e+00 0.0000e+00 1.0000e+00
      -11  1    4    4    0    0 +1.1803333508e+01 -7.1972680080e+00 -9.1843288703e+00 1.6597326456e+01 0.0000000000e+00 0.0000e+00 1.0000e+00
       13  1    5    5    0    0 -2.3337149595e+01 +4.2453479463e+01 -2.3955182874e+01 5.4044160242e+01 0.0000000000e+00 0.0000e+00 1.0000e+00
<mgrwt>
<rscale>  0 0.12500180E+03</rscale>
<asrwt>0</asrwt>
<pdfrwt beam="1">  1       21 0.16196731E-01 0.12500180E+03</pdfrwt>
<pdfrwt beam="2">  1       21 0.15073886E-01 0.12500180E+03</pdfrwt>
<totfact> 0.13223493E+06</totfact>
</mgrwt>
</event>
<event>
 9      1 +9.5563000e+06 1.25006200e+02 7.81860800e-03 1.23506000e-01
       21 -1    0    0  502  501 +0.0000000000e+00 +0.0000000000e+00 +1.0515178768e+02 1.0515178768e+02 0.0000000000e+00 0.0000e+00 -1.0000e+00
       21 -1    0    0  501  502 -0.0000000000e+00 -0.0000000000e+00 -3.7152353157e+01 3.7152353157e+01 0.0000000000e+00 0.0000e+00 -1.0000e+00
       25  2    1    2    0    0 +0.0000000000e+00 +0.0000000000e+00 +6.7999434522e+01 1.4230414084e+02 1.2500618146e+02 0.0000e+00 0.0000e+00
  9000006  2    3    3    0    0 +2.3058807822e+01 +4.0902096998e+01 +2.2505709375e+01 6.5659707289e+01 4.0000000623e+01 0.0000e+00 0.0000e+00
  9000006  2    3    3    0    0 -2.3058807822e+01 -4.0902096998e+01 +4.5493725147e+01 7.6644433548e+01 4.0000000115e+01 0.0000e+00 0.0000e+00
      -11  1    5    5    0    0 -2.6109865187e+01 -1.0274674557e+01 +1.0298041053e+01 2.9888854894e+01 0.0000000000e+00 0.0000e+00 1.0000e+00
       13  1    4    4    0    0 +1.0520390615e+01 +2.7873463951e+01 -7.4131788854e+00 3.0701202460e+01 0.0000000000e+00 0.0000e+00 1.0000e+00
      -11  1    4    4    0    0 +1.2538417207e+01 +1.3028633047e+01 +2.9918888260e+01 3.4958504829e+01 0.0000000000e+00 0.0000e+00 1.0000e+00
       13  1    5    5    0    0 +3.0510573658e+00 -3.0627422440e+01 +3.5195684094e+01 4.6755578654e+01 0.0000000000e+00 0.0000e+00 1.0000e+00
<mgrwt>
<rscale>  0 0.12500618E+03</rscale>
<asrwt>0</asrwt>
<pdfrwt beam="1">  1       21 0.26287946E-01 0.12500618E+03</pdfrwt>
<pdfrwt beam="2">  1       21 0.92880885E-02 0.12500618E+03</pdfrwt>
<totfact> 0.12693337E+06</totfact>
</mgrwt>
</event>
<event>
 9      1 +9.5563000e+06 1.25009500e+02 7.81860800e-03 1.23505400e-01
       21 -1    0    0  502  501 +0.0000000000e+00 +0.0000000000e+00 +1.4172300664e+02 1.4172300664e+02 0.0000000000e+00 0.0000e+00 -1.0000e+00
       21 -1    0    0  501  502 -0.0000000000e+00 -0.0000000000e+00 -2.7566752361e+01 2.7566752361e+01 0.0000000000e+00 0.0000e+00 -1.0000e+00
       25  2    1    2    0    0 +0.0000000000e+00 +7.1054273576e-15 +1.1415625428e+02 1.6928975900e+02 1.2500948809e+02 0.0000e+00 0.0000e+00
  9000006  2    3    3    0    0 +3.1824892751e+01 -3.5794229337e+01 +5.2234580395e+01 8.1378756553e+01 3.9999999708e+01 0.0000e+00 0.0000e+00
  9000006  2    3    3    0    0 -3.1824892751e+01 +3.5794229337e+01 +6.1921673882e+01 8.7911002446e+01 4.0000000029e+01 0.0000e+00 0.0000e+00
      -11  1    4    4    0    0 +3.2268330426e+01 -6.2669439890e+00 +2.7670394002e+01 4.2967085538e+01 0.0000000000e+00 0.0000e+00 1.0000e+00
       13  1    4    4    0    0 -4.4343767495e-01 -2.9527285348e+01 +2.4564186393e+01 3.8411671015e+01 0.0000000000e+00 0.0000e+00 1.0000e+00
      -11  1    5    5    0    0 -2.6660031167e+00 +1.9974019484e+01 +4.7766614930e+01 5.1843211019e+01 0.0000000000e+00 0.0000e+00 1.0000e+00
       13  1    5    5    0    0 -2.9158889634e+01 +1.5820209853e+01 +1.4155058952e+01 3.6067791427e+01 0.0000000000e+00 0.0000e+00 1.0000e+00
<mgrwt>
<rscale>  0 0.12500949E+03</rscale>
<asrwt>0</asrwt>
<pdfrwt beam="1">  1       21 0.35430750E-01 0.12500949E+03</pdfrwt>
<pdfrwt beam="2">  1       21 0.68916885E-02 0.12500949E+03</pdfrwt>
<totfact> 0.11926861E+06</totfact>
</mgrwt>
</event>
<event>
 9      1 +9.5563000e+06 1.24998600e+02 7.81860800e-03 1.23507100e-01
       21 -1    0    0  502  501 +0.0000000000e+00 +0.0000000000e+00 +1.6757000286e+01 1.6757000286e+01 0.0000000000e+00 0.0000e+00 1.0000e+00
       21 -1    0    0  501  502 -0.0000000000e+00 -0.0000000000e+00 -2.3310637899e+02 2.3310637899e+02 0.0000000000e+00 0.0000e+00 1.0000e+00
       25  2    1    2    0    0 -1.7763568394e-15 +0.0000000000e+00 -2.1634937870e+02 2.4986337927e+02 1.2499861854e+02 0.0000e+00 0.0000e+00
  9000006  2    3    3    0    0 -2.2196364369e+00 +4.4000717897e+01 -6.9976115817e+01 9.1856664112e+01 3.9999999945e+01 0.0000e+00 0.0000e+00
  9000006  2    3    3    0    0 +2.2196364369e+00 -4.4000717897e+01 -1.4637326288e+02 1.5800671516e+02 3.9999999837e+01 0.0000e+00 0.0000e+00
      -11  1    4    4    0    0 +9.7591237310e+00 -3.1733538791e+00 -7.7657999415e+00 1.2869278129e+01 0.0000000000e+00 0.0000e+00 1.0000e+00
       13  1    4    4    0    0 -1.1978760168e+01 +4.7174071776e+01 -6.2210315875e+01 7.8987385982e+01 0.0000000000e+00 0.0000e+00 1.0000e+00
      -11  1    5    5    0    0 +1.9330001372e+01 -3.2766967396e+01 -8.0703222258e+01 8.9220699326e+01 0.0000000000e+00 0.0000e+00 1.0000e+00
       13  1    5    5    0    0 -1.7110364935e+01 -1.1233750501e+01 -6.5670040625e+01 6.8786015833e+01 0.0000000000e+00 0.0000e+00 1.0000e+00
<mgrwt>
<rscale>  0 0.12499862E+03</rscale>
<asrwt>0</asrwt>
<pdfrwt beam="1">  1       21 0.41892500E-02 0.12499862E+03</pdfrwt>
<pdfrwt beam="2">  1       21 0.58276596E-01 0.12499862E+03</pdfrwt>
<totfact> 0.10024955E+06</totfact>
</mgrwt>
</event>
<event>
 9      1 +9.5563000e+06 1.25003500e+02 7.81860800e-03 1.23506400e-01
       21 -1    0    0  502  501 +0.0000000000e+00 +0.0000000000e+00 +2.5401961412e+02 2.5401961412e+02 0.0000000000e+00 0.0000e+00 1.0000e+00
       21 -1    0    0  501  502 -0.0000000000e+00 -0.0000000000e+00 -1.5378600172e+01 1.5378600172e+01 0.0000000000e+00 0.0000e+00 1.0000e+00
       25  2    1    2    0    0 -1.3322676296e-15 +0.0000000000e+00 +2.3864101395e+02 2.6939821430e+02 1.2500345726e+02 0.0000e+00 0.0000e+00
  9000006  2    3    3    0    0 -1.3550522438e+00 -4.7589234366e+00 +1.6369915398e+01 4.3502386991e+01 4.0000000311e+01 0.0000e+00 0.0000e+00
  9000006  2    3    3    0    0 +1.3550522438e+00 +4.7589234366e+00 +2.2227109855e+02 2.2589582731e+02 4.0000000284e+01 0.0000e+00 0.0000e+00
      -11  1    4    4    0    0 +2.9754904282e+00 -7.8569331114e+00 +2.8789070262e+01 2.9989923437e+01 0.0000000000e+00 0.0000e+00 1.0000e+00
       13  1    4    4    0    0 -4.3305426719e+00 +3.0980096748e+00 -1.2419154864e+01 1.3512463554e+01 0.0000000000e+00 0.0000e+00 1.0000e+00
      -11  1    5    5    0    0 +1.1991661368e+01 +1.1361298414e+01 +1.9702363461e+02 1.9771492518e+02 0.0000000000e+00 0.0000e+00 1.0000e+00
       13  1    5    5    0    0 -1.0636609124e+01 -6.6023749770e+00 +2.5247463946e+01 2.8180902127e+01 0.0000000000e+00 0.0000e+00 1.0000e+00
<mgrwt>
<rscale>  0 0.12500346E+03</rscale>
<asrwt>0</asrwt>
<pdfrwt beam="1">  1       21 0.63504890E-01 0.12500346E+03</pdfrwt>
<pdfrwt beam="2">  1       21 0.38446509E-02 0.12500346E+03</pdfrwt>
<totfact> 0.96295579E+05</totfact>
</mgrwt>
</event>
<event>
 9      1 +9.5563000e+06 1.25004700e+02 7.81860800e-03 1.23506200e-01
       21 -1    0    0  502  501 +0.0000000000e+00 +0.0000000000e+00 +1.2748729411e+02 1.2748729411e+02 0.0000000000e+00 0.0000e+00 1.0000e+00
       21 -1    0    0  501  502 -0.0000000000e+00 -0.0000000000e+00 -3.0642634994e+01 3.0642634994e+01 0.0000000000e+00 0.0000e+00 1.0000e+00
       25  2    1    2    0    0 +0.0000000000e+00 +3.5527136788e-15 +9.6844659115e+01 1.5812992910e+02 1.2500474583e+02 0.0000e+00 0.0000e+00
  9000006  2    3    3    0    0 -4.2893779652e+01 -1.7764238169e+01 +6.3972058739e+01 8.8588198132e+01 4.0000000732e+01 0.0000e+00 0.0000e+00
  9000006  2    3    3    0    0 +4.2893779652e+01 +1.7764238169e+01 +3.2872600377e+01 6.9541730971e+01 4.0000000005e+01 0.0000e+00 0.0000e+00
      -11  1    5    5    0    0 +2.9087993298e+01 +3.0227189221e+01 +1.7667915259e+01 4.5518672563e+01 0.0000000000e+00 0.0000e+00 1.0000e+00
       13  1    4    4    0    0 -4.7318063479e+01 -1.6169909289e+01 +3.9653245189e+01 6.3818844802e+01 0.0000000000e+00 0.0000e+00 1.0000e+00
      -11  1    4    4    0    0 +4.4242838272e+00 -1.5943288800e+00 +2.4318813550e+01 2.4769353331e+01 0.0000000000e+00 0.0000e+00 1.0000e+00
       13  1    5    5    0    0 +1.3805786353e+01 -1.2462951052e+01 +1.5204685117e+01 2.4023058408e+01 0.0000000000e+00 0.0000e+00 1.0000e+00
<mgrwt>
<rscale>  0 0.12500475E+03</rscale>
<asrwt>0</asrwt>
<pdfrwt beam="1">  1       21 0.31871822E-01 0.12500475E+03</pdfrwt>
<pdfrwt beam="2">  1       21 0.76606591E-02 0.12500475E+03</pdfrwt>
<totfact> 0.12235436E+06</totfact>
</mgrwt>
</event>
<event>
 9      1 +9.5563000e+06 1.24997600e+02 7.81860800e-03 1.23507300e-01
       21 -1    0    0  502  501 +0.0000000000e+00 +0.0000000000e+00 +7.1464957724e+01 7.1464957724e+01 0.0000000000e+00 0.0000e+00 -1.0000e+00
       21 -1    0    0  501  502 -0.0000000000e+00 -0.0000000000e+00 -5.4657541281e+01 5.4657541281e+01 0.0000000000e+00 0.0000e+00 -1.0000e+00
       25  2    1    2    0    0 +3.5527136788e-15 +8.8817841970e-16 +1.6807416442e+01 1.2612249900e+02 1.2499758201e+02 0.0000e+00 0.0000e+00
  9000006  2    3    3    0    0 -3.0364404563e+01 -5.7852362353e+00 +4.5485406754e+01 6.8002853579e+01 3.9999998058e+01 0.0000e+00 0.0000e+00
  9000006  2    3    3    0    0 +3.0364404563e+01 +5.7852362353e+00 -2.8677990311e+01 5.8119645425e+01 4.0000000417e+01 0.0000e+00 0.0000e+00
      -11  1    5    5    0    0 +3.4247324000e+01 +3.4211077646e+00 -3.5805978473e+01 4.9665393122e+01 0.0000000000e+00 0.0000e+00 1.0000e+00
       13  1    4    4    0    0 +6.4391438817e+00 +5.1746155685e+00 +2.0727282302e+01 2.2312764325e+01 0.0000000000e+00 0.0000e+00 1.0000e+00
      -11  1    4    4    0    0 -3.6803548444e+01 -1.0959851804e+01 +2.4758124452e+01 4.5690089254e+01 0.0000000000e+00 0.0000e+00 1.0000e+00
       13  1    5    5    0    0 -3.8829194374e+00 +2.3641284707e+00 +7.1279881618e+00 8.4542523039e+00 0.0000000000e+00 0.0000e+00 1.0000e+00
<mgrwt>
<rscale>  0 0.12499758E+03</rscale>
<asrwt>0</asrwt>
<pdfrwt beam="1">  1       21 0.17866239E-01 0.12499758E+03</pdfrwt>
<pdfrwt beam="2">  1       21 0.13664385E-01 0.12499758E+03</pdfrwt>
<totfact> 0.13192676E+06</totfact>
</mgrwt>
</event>
<event>
 9      1 +9.5563000e+06 1.24997000e+02 7.81860800e-03 1.23507400e-01
       21 -1    0    0  502  501 +0.0000000000e+00 +0.0000000000e+00 +3.2603380109e+00 3.2603380109e+00 0.0000000000e+00 0.0000e+00 -1.0000e+00
       21 -1    0    0  501  502 -0.0000000000e+00 -0.0000000000e+00 -1.1980545913e+03 1.1980545913e+03 0.0000000000e+00 0.0000e+00 -1.0000e+00
       25  2    1    2    0    0 +0.0000000000e+00 +0.0000000000e+00 -1.1947942532e+03 1.2013149293e+03 1.2499700673e+02 0.0000e+00 0.0000e+00
  9000006  2    3    3    0    0 +2.7611118587e+01 -2.4306558526e+01 -8.9406903725e+02 8.9571905531e+02 4.0000000047e+01 0.0000e+00 0.0000e+00
  9000006  2    3    3    0    0 -2.7611118587e+01 +2.4306558526e+01 -3.0072521599e+02 3.0559587396e+02 3.9999999905e+01 0.0000e+00 0.0000e+00
      -11  1    5    5    0    0 -1.4361746975e+01 +1.9764899509e+01 -6.4760576500e+01 6.9215917948e+01 0.0000000000e+00 0.0000e+00 1.0000e+00
       13  1    4    4    0    0 +3.3106748208e+01 -7.8876243853e+00 -7.1651510588e+02 7.1732291776e+02 0.0000000000e+00 0.0000e+00 1.0000e+00
      -11  1    4    4    0    0 -5.4956296216e+00 -1.6418934141e+01 -1.7755393138e+02 1.7839613754e+02 0.0000000000e+00 0.0000e+00 1.0000e+00
       13  1    5    5    0    0 -1.3249371612e+01 +4.5416590170e+00 -2.3596463949e+02 2.3637995601e+02 0.0000000000e+00 0.0000e+00 1.0000e+00
<mgrwt>
<rscale>  0 0.12499701E+03</rscale>
<asrwt>0</asrwt>
<pdfrwt beam="1">  1       21 0.81508493E-03 0.12499701E+03</pdfrwt>
<pdfrwt beam="2">  1       21 0.29951349E+00 0.12499701E+03</pdfrwt>
<totfact> 0.18886890E+05</totfact>
</mgrwt>
</event>
<event>
 9      1 +9.5563000e+06 1.25008900e+02 7.81860800e-03 1.23505500e-01
       21 -1    0    0  502  501 +0.0000000000e+00 +0.0000000000e+00 +4.4237192544e+02 4.4237192544e+02 0.0000000000e+00 0.0000e+00 -1.0000e+00
       21 -1    0    0  501  502 -0.0000000000e+00 -0.0000000000e+00 -8.8314900243e+00 8.8314900243e+00 0.0000000000e+00 0.0000e+00 -1.0000e+00
       25  2    1    2    0    0 +0.0000000000e+00 +0.0000000000e+00 +4.3354043542e+02 4.5120341546e+02 1.2500885163e+02 0.0000e+00 0.0000e+00
  9000006  2    3    3    0    0 -6.7475093235e+00 +3.7357350910e+01 +1.1057230092e+02 1.2356105488e+02 4.0000000048e+01 0.0000e+00 0.0000e+00
  9000006  2    3    3    0    0 +6.7475093235e+00 -3.7357350910e+01 +3.2296813450e+02 3.2764236058e+02 3.9999999986e+01 0.0000e+00 0.0000e+00
      -11  1    5    5    0    0 +5.1586804144e+00 -5.9872391653e+00 +8.4885731229e+00 1.1598055445e+01 0.0000000000e+00 0.0000e+00 1.0000e+00
       13  1    4    4    0    0 +1.2006876010e+01 +5.1855635378e-01 +1.3622137583e+01 1.8165808667e+01 0.0000000000e+00 0.0000e+00 1.0000e+00
      -11  1    4    4    0    0 -1.8754385334e+01 +3.6838794556e+01 +9.6950163336e+01 1.0539524621e+02 0.0000000000e+00 0.0000e+00 1.0000e+00
       13  1    5    5    0    0 +1.5888289091e+00 -3.1370111745e+01 +3.1447956138e+02 3.1604430514e+02 0.0000000000e+00 0.0000e+00 1.0000e+00
<mgrwt>
<rscale>  0 0.12500885E+03</rscale>
<asrwt>0</asrwt>
<pdfrwt beam="1">  1       21 0.11059291E+00 0.12500885E+03</pdfrwt>
<pdfrwt beam="2">  1       21 0.22078740E-02 0.12500885E+03</pdfrwt>
<totfact> 0.68239918E+05</totfact>
</mgrwt>
</event>
<event>
 9      1 +9.5563000e+06 1.24994700e+02 7.81860800e-03 1.23507800e-01
       21 -1    0    0  502  501 +0.0000000000e+00 +0.0000000000e+00 +3.2374308256e+02 3.2374308256e+02 0.0000000000e+00 0.0000e+00 1.0000e+00
       21 -1    0    0  501  502 -0.0000000000e+00 -0.0000000000e+00 -1.2064875966e+01 1.2064875966e+01 0.0000000000e+00 0.0000e+00 1.0000e+00
       25  2    1    2    0    0 +0.0000000000e+00 -1.3322676296e-15 +3.1167820659e+02 3.3580795852e+02 1.2499472206e+02 0.0000e+00 0.0000e+00
  9000006  2    3    3    0    0 +4.7601610706e+01 -2.5529970594e+00 +1.4029196817e+02 1.5347399608e+02 4.0000000034e+01 0.0000e+00 0.0000e+00
  9000006  2    3    3    0    0 -4.7601610706e+01 +2.5529970594e+00 +1.7138623842e+02 1.8233396244e+02 4.0000000067e+01 0.0000e+00 0.0000e+00
      -11  1    4    4    0    0 +7.3925412432e+00 -1.5975305006e+01 +2.4511066928e+01 3.0177018375e+01 0.0000000000e+00 0.0000e+00 1.0000e+00
       13  1    4    4    0    0 +4.0209069463e+01 +1.3422307947e+01 +1.1578090124e+02 1.2329697770e+02 0.0000000000e+00 0.0000e+00 1.0000e+00
      -11  1    5    5    0    0 -5.1821454719e+01 -2.1365690217e+00 +1.6639109049e+02 1.7428718568e+02 0.0000000000e+00 0.0000e+00 1.0000e+00
       13  1    5    5    0    0 +4.2198440130e+00 +4.6895660811e+00 +4.9951479285e+00 8.0467767678e+00 0.0000000000e+00 0.0000e+00 1.0000e+00
<mgrwt>
<rscale>  0 0.12499472E+03</rscale>
<asrwt>0</asrwt>
<pdfrwt beam="1">  1       21 0.80935742E-01 0.12499472E+03</pdfrwt>
<pdfrwt beam="2">  1       21 0.30162201E-02 0.12499472E+03</pdfrwt>
<totfact> 0.84488778E+05</totfact>
</mgrwt>
</event>
<event>
 9      1 +9.5563000e+06 1.24994100e+02 7.81860800e-03 1.23507800e-01
       21 -1    0    0  502  501 +0.0000000000e+00 +0.0000000000e+00 +7.7077989808e+01 7.7077989808e+01 0.0000000000e+00 0.0000e+00 -1.0000e+00
       21 -1    0    0  501  502 -0.0000000000e+00 -0.0000000000e+00 -5.0674436333e+01 5.0674436333e+01 0.0000000000e+00 0.0000e+00 -1.0000e+00
       25  2    1    2    0    0 +1.7763568394e-15 +0.0000000000e+00 +2.6403553476e+01 1.2775242614e+02 1.2499413886e+02 0.0000e+00 0.0000e+00
  9000006  2    3    3    0    0 +8.9446589970e+00 +4.7129257742e+01 +1.5419885047e+01 6.4334646159e+01 3.9999999770e+01 0.0000e+00 0.0000e+00
  9000006  2    3    3    0    0 -8.9446589970e+00 -4.7129257742e+01 +1.0983668429e+01 6.3417779982e+01 3.9999999823e+01 0.0000e+00 0.0000e+00
      -11  1    4    4    0    0 +2.2601714529e+01 +1.5053127160e+01 +1.0552589686e+01 2.9134022825e+01 0.0000000000e+00 0.0000e+00 1.0000e+00
       13  1    4    4    0    0 -1.3657055531e+01 +3.2076130582e+01 +4.8672953612e+00 3.5200623333e+01 0.0000000000e+00 0.0000e+00 1.0000e+00
      -11  1    5    5    0    0 -5.5259725328e+00 -3.2786934387e+01 +2.6123898744e+01 4.2284483259e+01 0.0000000000e+00 0.0000e+00 1.0000e+00
       13  1    5    5    0    0 -3.4186864642e+00 -1.4342323355e+01 -1.5140230315e+01 2.1133296723e+01 0.0000000000e+00 0.0000e+00 1.0000e+00
<mgrwt>
<rscale>  0 0.12499414E+03</rscale>
<asrwt>0</asrwt>
<pdfrwt beam="1">  1       21 0.19269497E-01 0.12499414E+03</pdfrwt>
<pdfrwt beam="2">  1       21 0.12668609E-01 0.12499414E+03</pdfrwt>
<totfact> 0.13142766E+06</totfact>
</mgrwt>
</event>
<event>
 9      1 +9.5563000e+06 1.25011200e+02 7.81860800e-03 1.23505200e-01
       21 -1    0    0  502  501 +0.0000000000e+00 +0.0000000000e+00 +7.6956120633e+01 7.6956120633e+01 0.0000000000e+00 0.0000e+00 -1.0000e+00
       21 -1    0    0  501  502 -0.0000000000e+00 -0.0000000000e+00 -5.0768522293e+01 5.0768522293e+01 0.0000000000e+00 0.0000e+00 -1.0000e+00
       25  2    1    2    0    0 +0.0000000000e+00 +0.0000000000e+00 +2.6187598340e+01 1.2772464293e+02 1.2501117592e+02 0.0000e+00 0.0000e+00
  9000006  2    3    3    0    0 +4.3835323450e+01 +4.6011422249e-01 -6.9587547440e+00 5.9750912628e+01 4.0000000065e+01 0.0000e+00 0.0000e+00
  9000006  2    3    3    0    0 -4.3835323450e+01 -4.6011422249e-01 +3.3146353084e+01 6.7973730298e+01 4.0000000009e+01 0.0000e+00 0.0000e+00
      -11  1    4    4    0    0 -7.2751168501e+00 -3.2767385829e+00 +3.4362061269e-01 7.9863894250e+00 0.0000000000e+00 0.0000e+00 1.0000e+00
       13  1    4    4    0    0 +5.1110440300e+01 +3.7368528054e+00 -7.3023753567e+00 5.1764523203e+01 0.0000000000e+00 0.0000e+00 1.0000e+00
      -11  1    5    5    0    0 -1.9700733095e+01 -2.6574765166e+00 +3.8341652174e+01 4.3188694787e+01 0.0000000000e+00 0.0000e+00 1.0000e+00
       13  1    5    5    0    0 -2.4134590355e+01 +2.1973622941e+00 -5.1952990899e+00 2.4785035511e+01 0.0000000000e+00 0.0000e+00 1.0000e+00
<mgrwt>
<rscale>  0 0.12501118E+03</rscale>
<asrwt>0</asrwt>
<pdfrwt beam="1">  1       21 0.19239030E-01 0.12501118E+03</pdfrwt>
<pdfrwt beam="2">  1       21 0.12692131E-01 0.12501118E+03</pdfrwt>
<totfact> 0.13137760E+06</totfact>
</mgrwt>
</event>
<event>
 9      1 +9.5563000e+06 1.25005200e+02 7.81860800e-03 1.23506100e-01
       21 -1    0    0  502  501 +0.0000000000e+00 +0.0000000000e+00 +5.8106470631e+01 5.8106470631e+01 0.0000000000e+00 0.0000e+00 1.0000e+00
       21 -1    0    0  501  502 -0.0000000000e+00 -0.0000000000e+00 -6.7231274230e+01 6.7231274230e+01 0.0000000000e+00 0.0000e+00 1.0000e+00
       25  2    1    2    0    0 +0.0000000000e+00 -4.4408920985e-16 -9.1248035987e+00 1.2533774486e+02 1.2500515288e+02 0.0000e+00 0.0000e+00
  9000006  2    3    3    0    0 +4.7429161542e+01 +3.0433605370e+00 +2.3686346486e+00 6.2164281037e+01 3.9999999984e+01 0.0000e+00 0.0000e+00
  9000006  2    3    3    0    0 -4.7429161542e+01 -3.0433605370e+00 -1.1493438247e+01 6.3173463825e+01 4.0000000011e+01 0.0000e+00 0.0000e+00
      -11  1    5    5    0    0 -3.0697393194e+01 -3.5097191416e+00 -2.6490969098e+01 4.0699134156e+01 0.0000000000e+00 0.0000e+00 1.0000e+00
       13  1    4    4    0    0 -2.6741615263e+00 -7.3066493217e+00 -6.6244885379e+00 1.0218713841e+01 0.0000000000e+00 0.0000e+00 1.0000e+00
      -11  1    4    4    0    0 +5.0103323069e+01 +1.0350009859e+01 +8.9931231865e+00 5.1945567195e+01 0.0000000000e+00 0.0000e+00 1.0000e+00
       13  1    5    5    0    0 -1.6731768349e+01 +4.6635860453e-01 +1.4997530850e+01 2.2474329668e+01 0.0000000000e+00 0.0000e+00 1.0000e+00
<mgrwt>
<rscale>  0 0.12500515E+03</rscale>
<asrwt>0</asrwt>
<pdfrwt beam="1">  1       21 0.14526618E-01 0.12500515E+03</pdfrwt>
<pdfrwt beam="2">  1       21 0.16807818E-01 0.12500515E+03</pdfrwt>
<totfact> 0.13214392E+06</totfact>
</mgrwt>
</event>
<event>
 9      1 +9.5563000e+06 1.25005200e+02 7.81860800e-03 1.23506100e-01
       21 -1    0    0  502  501 +0.0000000000e+00 +0.0000000000e+00 +1.9851053091e+01 1.9851053091e+01 0.0000000000e+00 0.0000e+00 1.0000e+00
       21 -1    0    0  501  502 -0.0000000000e+00 -0.0000000000e+00 -1.9679427732e+02 1.9679427732e+02 0.0000000000e+00 0.0000e+00 1.0000e+00
       25  2    1    2    0    0 +0.0000000000e+00 +0.0000000000e+00 -1.7694322423e+02 2.1664533041e+02 1.2500517825e+02 0.0000e+00 0.0000e+00
  9000006  2    3    3    0    0 -7.1609400401e+00 +4.7302195962e+01 -9.5782882809e+01 1.1429408315e+02 3.9999999997e+01 0.0000e+00 0.0000e+00
  9000006  2    3    3    0    0 +7.1609400401e+00 -4.7302195962e+01 -8.1160341422e+01 1.0235124726e+02 3.9999999882e+01 0.0000e+00 0.0000e+00
      -11  1    4    4    0    0 -2.2784254776e+01 +3.7122344877e+01 -7.0678532515e+01 8.3021959224e+01 0.0000000000e+00 0.0000e+00 1.0000e+00
       13  1    4    4    0    0 +1.5623314736e+01 +1.0179851085e+01 -2.5104350294e+01 3.1272123930e+01 0.0000000000e+00 0.0000e+00 1.0000e+00
      -11  1    5    5    0    0 +9.0689639494e+00 -1.2568038650e+01 -5.9241124491e+01 6.1234896371e+01 0.0000000000e+00 0.0000e+00 1.0000e+00
       13  1    5    5    0    0 -1.9080239094e+00 -3.4734157312e+01 -2.1919216931e+01 4.1116350887e+01 0.0000000000e+00 0.0000e+00 1.0000e+00
<mgrwt>
<rscale>  0 0.12500518E+03</rscale>
<asrwt>0</asrwt>
<pdfrwt beam="1">  1       21 0.49627634E-02 0.12500518E+03</pdfrwt>
<pdfrwt beam="2">  1       21 0.49198568E-01 0.12500518E+03</pdfrwt>
<totfact> 0.10747974E+06</totfact>
</mgrwt>
</event>
<event>
 9      1 +9.5563000e+06 1.24994900e+02 7.81860800e-03 1.23507700e-01
       21 -1    0    0  502  501 +0.0000000000e+00 +0.0000000000e+00 +9.7715477863e+00 9.7715477863e+00 0.0000000000e+00 0.0000e+00 -1.0000e+00
       21 -1    0    0  501  502 -0.0000000000e+00 -0.0000000000e+00 -3.9972510919e+02 3.9972510919e+02 0.0000000000e+00 0.0000e+00 -1.0000e+00
       25  2    1    2    0    0 +0.0000000000e+00 +3.5527136788e-15 -3.8995356140e+02 4.0949665698e+02 1.2499492799e+02 0.0000e+00 0.0000e+00
  9000006  2    3    3    0    0 -4.3099268436e+01 -1.5525993842e+01 -2.4214924985e+02 2.4966950679e+02 3.9999999922e+01 0.0000e+00 0.0000e+00
  9000006  2    3    3    0    0 +4.3099268436e+01 +1.5525993842e+01 -1.4780431155e+02 1.5982715018e+02 3.9999999974e+01 0.0000e+00 0.0000e+00
      -11  1    5    5    0    0 +1.5690044917e+01 -1.3598229345e+01 -4.7192878601e+01 5.1558288776e+01 0.0000000000e+00 0.0000e+00 1.0000e+00
       13  1    4    4    0    0 -2.3258064188e+01 -9.1553084228e+00 -2.0916981573e+02 2.1065794320e+02 0.0000000000e+00 0.0000e+00 1.0000e+00
      -11  1    4    4    0    0 -1.9841204249e+01 -6.3706854188e+00 -3.2979434126e+01 3.9011563594e+01 0.0000000000e+00 0.0000e+00 1.0000e+00
       13  1    5    5    0    0 +2.7409223520e+01 +2.9124223186e+01 -1.0061143295e+02 1.0826886141e+02 0.0000000000e+00 0.0000e+00 1.0000e+00
<mgrwt>
<rscale>  0 0.12499493E+03</rscale>
<asrwt>0</asrwt>
<pdfrwt beam="1">  1       21 0.24428873E-02 0.12499493E+03</pdfrwt>
<pdfrwt beam="2">  1       21 0.99931265E-01 0.12499493E+03</pdfrwt>
<totfact> 0.73625215E+05</totfact>
</mgrwt>
</event>
<event>
 9      1 +9.5563000e+06 1.25001800e+02 7.81860800e-03 1.23506600e-01
       21 -1    0    0  502  501 +0.0000000000e+00 +0.0000000000e+00 +1.7881528727e+02 1.7881528727e+02 0.0000000000e+00 0.0000e+00 -1.0000e+00
       21 -1    0    0  501  502 -0.0000000000e+00 -0.0000000000e+00 -2.1845806260e+01 2.1845806260e+01 0.0000000000e+00 0.0000e+00 -1.0000e+00
       25  2    1    2    0    0 +1.7763568394e-15 +0.0000000000e+00 +1.5696948101e+02 2.0066109354e+02 1.2500182594e+02 0.0000e+00 0.0000e+00
  9000006  2    3    3    0    0 -1.8676462373e+00 -4.6725314448e+01 +9.6041754401e+01 1.1406472596e+02 4.0000000086e+01 0.0000e+00 0.0000e+00
  9000006  2    3    3    0    0 +1.8676462373e+00 +4.6725314448e+01 +6.0927726614e+01 8.6596367577e+01 3.9999998681e+01 0.0000e+00 0.0000e+00
      -11  1    5    5    0    0 -1.7025363295e+01 +8.8299122806e+00 +1.8152200597e+01 2.6407058388e+01 0.0000000000e+00 0.0000e+00 1.0000e+00
       13  1    4    4    0    0 +1.5321378601e+01 -2.9374373035e+01 +7.4356785097e+01 8.1403500683e+01 0.0000000000e+00 0.0000e+00 1.0000e+00
      -11  1    4    4    0    0 -1.7189024838e+01 -1.7350941413e+01 +2.1684969303e+01 3.2661225275e+01 0.0000000000e+00 0.0000e+00 1.0000e+00
       13  1    5    5    0    0 +1.8893009532e+01 +3.7895402167e+01 +4.2775526016e+01 6.0189309188e+01 0.0000000000e+00 0.0000e+00 1.0000e+00
<mgrwt>
<rscale>  0 0.12500183E+03</rscale>
<asrwt>0</asrwt>
<pdfrwt beam="1">  1       21 0.44703817E-01 0.12500183E+03</pdfrwt>
<pdfrwt beam="2">  1       21 0.54614521E-02 0.12500183E+03</pdfrwt>
<totfact> 0.11126674E+06</totfact>
</mgrwt>
</event>
<event>
 9      1 +9.5563000e+06 1.25002500e+02 7.81860800e-03 1.23506500e-01
       21 -1    0    0  502  501 +0.0000000000e+00 +0.0000000000e+00 +3.0688643055e+01 3.0688643055e+01 0.0000000000e+00 0.0000e+00 -1.0000e+00
       21 -1    0    0  501  502 -0.0000000000e+00 -0.0000000000e+00 -1.2729166457e+02 1.2729166457e+02 0.0000000000e+00 0.0000e+00 -1.0000e+00
       25  2    1    2    0    0 +1.7763568394e-15 +0.0000000000e+00 -9.6603021516e+01 1.5798030763e+02 1.2500253530e+02 0.0000e+00 0.0000e+00
  9000006  2    3    3    0    0 +1.5473870925e+01 +4.5439632719e+01 -5.0179272659e+01 8.0138382308e+01 4.0000000142e+01 0.0000e+00 0.0000e+00
  9000006  2    3    3    0    0 -1.5473870925e+01 -4.5439632719e+01 -4.6423748857e+01 7.7841925317e+01 3.9999999700e+01 0.0000e+00 0.0000e+00
      -11  1    5    5    0    0 -1.0164806622e+01 -3.4643422566e+01 -5.3001708052e+01 6.4130110534e+01 0.0000000000e+00 0.0000e+00 1.0000e+00
       13  1    4    4    0    0 +2.3589148898e+01 +2.4446397167e+01 -4.6099157872e+01 5.7264357472e+01 0.0000000000e+00 0.0000e+00 1.0000e+00
      -11  1    4    4    0    0 -8.1152779727e+00 +2.0993235552e+01 -4.0801147866e+00 2.2874024836e+01 0.0000000000e+00 0.0000e+00 1.0000e+00
       13  1    5    5    0    0 -5.3090643037e+00 -1.0796210154e+01 +6.5779591948e+00 1.3711814783e+01 0.0000000000e+00 0.0000e+00 1.0000e+00
<mgrwt>
<rscale>  0 0.12500254E+03</rscale>
<asrwt>0</asrwt>
<pdfrwt beam="1">  1       21 0.76721609E-02 0.12500254E+03</pdfrwt>
<pdfrwt beam="2">  1       21 0.31822916E-01 0.12500254E+03</pdfrwt>
<totfact> 0.12240354E+06</totfact>
</mgrwt>
</event>
<event>
 9      1 +9.5563000e+06 1.24998400e+02 7.81860800e-03 1.23507200e-01
       21 -1    0    0  502  501 +0.0000000000e+00 +0.0000000000e+00 +9.3824714060e+00 9.3824714060e+00 0.0000000000e+00 0.0000e+00 -1.0000e+00
       21 -1    0    0  501  502 -0.0000000000e+00 -0.0000000000e+00 -4.1632442647e+02 4.1632442647e+02 0.0000000000e+00 0.0000e+00 -1.0000e+00
       25  2    1    2    0    0 +7.1054273576e-15 +0.0000000000e+00 -4.0694195506e+02 4.2570689787e+02 1.2499843242e+02 0.0000e+00 0.0000e+00
  9000006  2    3    3    0    0 -2.1074471023e+01 +2.8345755424e+01 -9.2666040815e+01 1.0693273729e+02 4.0000000068e+01 0.0000e+00 0.0000e+00
  9000006  2    3    3    0    0 +2.1074471023e+01 -2.8345755424e+01 -3.1427591425e+02 3.1877416058e+02 3.9999999977e+01 0.0000e+00 0.0000e+00
      -11  1    4    4    0    0 -9.6316246234e-01 -7.8625530998e+00 -3.5875429786e+00 8.6958546331e+00 0.0000000000e+00 0.0000e+00 1.0000e+00
       13  1    4    4    0    0 -2.0111308561e+01 +3.6208308524e+01 -8.9078497837e+01 9.8236882661e+01 0.0000000000e+00 0.0000e+00 1.0000e+00
      -11  1    5    5    0    0 +8.8326888452e+00 -1.4325202191e+01 -3.4561794757e+01 3.8441455057e+01 0.0000000000e+00 0.0000e+00 1.0000e+00
       13  1    5    5    0    0 +1.2241782178e+01 -1.4020553233e+01 -2.7971411949e+02 2.8033270552e+02 0.0000000000e+00 0.0000e+00 1.0000e+00
<mgrwt>
<rscale>  0 0.12499843E+03</rscale>
<asrwt>0</asrwt>
<pdfrwt beam="1">  1       21 0.23456180E-02 0.12499843E+03</pdfrwt>
<pdfrwt beam="2">  1       21 0.10408110E+00 0.12499843E+03</pdfrwt>
<totfact> 0.71461221E+05</totfact>
</mgrwt>
</event>
<event>
 9      1 +9.5563000e+06 1.24993100e+02 7.81860800e-03 1.23508000e-01
       21 -1    0    0  502  501 +0.0000000000e+00 +0.0000000000e+00 +3.9471823894e+02 3.9471823894e+02 0.0000000000e+00 0.0000e+00 1.0000e+00
       21 -1    0    0  501  502 -0.0000000000e+00 -0.0000000000e+00 -9.8952090136e+00 9.8952090136e+00 0.0000000000e+00 0.0000e+00 1.0000e+00
       25  2    1    2    0    0 +0.0000000000e+00 +7.1054273576e-15 +3.8482302993e+02 4.0461344795e+02 1.2499311142e+02 0.0000e+00 0.0000e+00
  9000006  2    3    3    0    0 -1.7717953784e+00 -2.0502592689e+01 +3.3285494023e+02 3.3588079255e+02 4.0000000052e+01 0.0000e+00 0.0000e+00
  9000006  2    3    3    0    0 +1.7717953784e+00 +2.0502592689e+01 +5.1968089698e+01 6.8732655403e+01 4.0000000076e+01 0.0000e+00 0.0000e+00
      -11  1    5    5    0    0 +1.0890351548e+01 +2.7466058795e+01 +2.2586934238e+01 3.7190774942e+01 0.0000000000e+00 0.0000e+00 1.0000e+00
       13  1    4    4    0    0 +1.0093337262e+01 +8.6722480564e+00 +8.5651343100e+01 8.6678924302e+01 0.0000000000e+00 0.0000e+00 1.0000e+00
      -11  1    4    4    0    0 -1.1865132640e+01 -2.9174840745e+01 +2.4720359713e+02 2.4920186825e+02 0.0000000000e+00 0.0000e+00 1.0000e+00
       13  1    5    5    0    0 -9.1185561692e+00 -6.9634661062e+00 +2.9381155460e+01 3.1541880461e+01 0.0000000000e+00 0.0000e+00 1.0000e+00
<mgrwt>
<rscale>  0 0.12499311E+03</rscale>
<asrwt>0</asrwt>
<pdfrwt beam="1">  1       21 0.98679507E-01 0.12499311E+03</pdfrwt>
<pdfrwt beam="2">  1       21 0.24738036E-02 0.12499311E+03</pdfrwt>
<totfact> 0.74287493E+05</totfact>
</mgrwt>
</event>
<event>
 8      1 +9.5563000e+06 1.24856600e+02 7.81860800e-03 1.23529400e-01
       21 -1    0    0  502  501 +0.0000000000e+00 +0.0000000000e+00 +4.0904551797e+01 4.0904551797e+01 0.0000000000e+00 0.0000e+00 -1.0000e+00
       21 -1    0    0  501  502 -0.0000000000e+00 -0.0000000000e+00 -9.5277648896e+01 9.5277648896e+01 0.0000000000e+00 0.0000e+00 -1.0000e+00
  9000006  2    1    2    0    0 -4.5247047826e+01 -1.3706124987e+01 -3.5784239341e+01 7.1523876945e+01 3.9999999862e+01 0.0000e+00 0.0000e+00
  9000006  2    1    2    0    0 +4.5247047826e+01 +1.3706124987e+01 -1.8588857758e+01 6.4658323748e+01 3.9999999976e+01 0.0000e+00 0.0000e+00
      -11  1    3    3    0    0 -1.5809055204e+01 +1.0940471602e+01 -2.7561116462e-01 1.9227483112e+01 0.0000000000e+00 0.0000e+00 1.0000e+00
       13  1    3    3    0    0 -2.9437992623e+01 -2.4646596588e+01 -3.5508628176e+01 5.2296393834e+01 0.0000000000e+00 0.0000e+00 1.0000e+00
      -11  1    4    4    0    0 +3.9350669606e+01 +2.6725200668e+01 -1.3000380980e+01 4.9312487818e+01 0.0000000000e+00 0.0000e+00 1.0000e+00
       13  1    4    4    0    0 +5.8963782204e+00 -1.3019075681e+01 -5.5884767775e+00 1.5345835931e+01 0.0000000000e+00 0.0000e+00 1.0000e+00
<mgrwt>
<rscale>  0 0.12485655E+03</rscale>
<asrwt>0</asrwt>
<pdfrwt beam="1">  1       21 0.10226138E-01 0.12485655E+03</pdfrwt>
<pdfrwt beam="2">  1       21 0.23819412E-01 0.12485655E+03</pdfrwt>
<totfact> 0.12927674E+06</totfact>
</mgrwt>
</event>
<event>
 9      1 +9.5563000e+06 1.25008900e+02 7.81860800e-03 1.23505500e-01
       21 -1    0    0  502  501 +0.0000000000e+00 +0.0000000000e+00 +5.7565431357e+00 5.7565431357e+00 0.0000000000e+00 0.0000e+00 1.0000e+00
       21 -1    0    0  501  502 -0.0000000000e+00 -0.0000000000e+00 -6.7867266455e+02 6.7867266455e+02 0.0000000000e+00 0.0000e+00 1.0000e+00
       25  2    1    2    0    0 +0.0000000000e+00 -1.4210854715e-14 -6.7291612142e+02 6.8442920769e+02 1.2500893518e+02 0.0000e+00 0.0000e+00
  9000006  2    3    3    0    0 +9.8644532177e+00 +4.6645220972e+01 -3.6825311112e+02 3.7347481566e+02 4.0000000064e+01 0.0000e+00 0.0000e+00
  9000006  2    3    3    0    0 -9.8644532177e+00 -4.6645220972e+01 -3.0466301030e+02 3.1095439203e+02 4.0000000030e+01 0.0000e+00 0.0000e+00
      -11  1    4    4    0    0 -3.4836515478e+00 +3.2338520823e+01 -3.1615204209e+02 3.1782075054e+02 0.0000000000e+00 0.0000e+00 1.0000e+00
       13  1    4    4    0    0 +1.3348104765e+01 +1.4306700149e+01 -5.2101069024e+01 5.5654065111e+01 0.0000000000e+00 0.0000e+00 1.0000e+00
      -11  1    5    5    0    0 +4.1602571200e+00 +3.0480064456e+00 -6.2310845675e+00 8.0885411221e+00 0.0000000000e+00 0.0000e+00 1.0000e+00
       13  1    5    5    0    0 -1.4024710338e+01 -4.9693227417e+01 -2.9843192573e+02 3.0286585091e+02 0.0000000000e+00 0.0000e+00 1.0000e+00
<mgrwt>
<rscale>  0 0.12500894E+03</rscale>
<asrwt>0</asrwt>
<pdfrwt beam="1">  1       21 0.14391356E-02 0.12500894E+03</pdfrwt>
<pdfrwt beam="2">  1       21 0.16966819E+00 0.12500894E+03</pdfrwt>
<totfact> 0.45983794E+05</totfact>
</mgrwt>
</event>
<event>
 9      1 +9.5563000e+06 1.24998500e+02 7.81860800e-03 1.23507200e-01
       21 -1    0    0  502  501 +0.0000000000e+00 +0.0000000000e+00 +1.4199705150e+02 1.4199705150e+02 0.0000000000e+00 0.0000e+00 1.0000e+00
       21 -1    0    0  501  502 -0.0000000000e+00 -0.0000000000e+00 -2.7508734496e+01 2.7508734496e+01 0.0000000000e+00 0.0000e+00 1.0000e+00
       25  2    1    2    0    0 +0.0000000000e+00 +0.0000000000e+00 +1.1448831701e+02 1.6950578600e+02 1.2499854702e+02 0.0000e+00 0.0000e+00
  9000006  2    3    3    0    0 +2.0231646080e+01 -2.2341287446e+00 -1.7382796304e+00 4.4914724526e+01 4.0000000360e+01 0.0000e+00 0.0000e+00
  9000006  2    3    3    0    0 -2.0231646080e+01 +2.2341287446e+00 +1.1622659664e+02 1.2459106147e+02 3.9999999984e+01 0.0000e+00 0.0000e+00
      -11  1    5    5    0    0 -2.1057443209e+01 +1.0852816437e+01 +3.1451981081e+01 3.9375457496e+01 0.0000000000e+00 0.0000e+00 1.0000e+00
       13  1    4    4    0    0 -2.8791541328e+00 -9.7851862547e+00 +1.2968890326e+01 1.6499439834e+01 0.0000000000e+00 0.0000e+00 1.0000e+00
      -11  1    4    4    0    0 +2.3110800213e+01 +7.5510575101e+00 -1.4707169956e+01 2.8415284692e+01 0.0000000000e+00 0.0000e+00 1.0000e+00
       13  1    5    5    0    0 +8.2579712930e-01 -8.6186876920e+00 +8.4774615554e+01 8.5215603975e+01 0.0000000000e+00 0.0000e+00 1.0000e+00
<mgrwt>
<rscale>  0 0.12499855E+03</rscale>
<asrwt>0</asrwt>
<pdfrwt beam="1">  1       21 0.35499261E-01 0.12499855E+03</pdfrwt>
<pdfrwt beam="2">  1       21 0.68771840E-02 0.12499855E+03</pdfrwt>
<totfact> 0.11924465E+06</totfact>
</mgrwt>
</event>
<event>
 9      1 +9.5563000e+06 1.25000400e+02 7.81860800e-03 1.23506900e-01
       21 -1    0    0  502  501 +0.0000000000e+00 +0.0000000000e+00 +8.3049625383e+01 8.3049625383e+01 0.0000000000e+00 0.0000e+00 -1.0000e+00
       21 -1    0    0  501  502 -0.0000000000e+00 -0.0000000000e+00 -4.7035456724e+01 4.7035456724e+01 0.0000000000e+00 0.0000e+00 -1.0000e+00
       25  2    1    2    0    0 -1.7763568394e-15 -7.1054273576e-15 +3.6014168660e+01 1.3008508211e+02 1.2500043297e+02 0.0000e+00 0.0000e+00
  9000006  2    3    3    0    0 +1.1489145268e+01 +4.3700024445e+01 +1.0793768890e+00 6.0356090403e+01 3.9999999985e+01 0.0000e+00 0.0000e+00
  9000006  2    3    3    0    0 -1.1489145268e+01 -4.3700024445e+01 +3.4934791771e+01 6.9728991704e+01 4.0000000157e+01 0.0000e+00 0.0000e+00
      -11  1    5    5    0    0 -2.5229312788e+01 -3.6732102050e+01 +2.2440064377e+01 4.9893106077e+01 0.0000000000e+00 0.0000e+00 1.0000e+00
       13  1    4    4    0    0 -1.4491026360e+01 +9.8108305692e+00 -1.5837082849e+00 1.7571294015e+01 0.0000000000e+00 0.0000e+00 1.0000e+00
      -11  1    4    4    0    0 +2.5980171628e+01 +3.3889193875e+01 +2.6630851739e+00 4.2784796388e+01 0.0000000000e+00 0.0000e+00 1.0000e+00
       13  1    5    5    0    0 +1.3740167520e+01 -6.9679223945e+00 +1.2494727394e+01 1.9835885627e+01 0.0000000000e+00 0.0000e+00 1.0000e+00
<mgrwt>
<rscale>  0 0.12500043E+03</rscale>
<asrwt>0</asrwt>
<pdfrwt beam="1">  1       21 0.20762406E-01 0.12500043E+03</pdfrwt>
<pdfrwt beam="2">  1       21 0.11758864E-01 0.12500043E+03</pdfrwt>
<totfact> 0.13066832E+06</totfact>
</mgrwt>
</event>
<event>
 9      1 +9.5563000e+06 1.24999600e+02 7.81860800e-03 1.23507000e-01
       21 -1    0    0  502  501 +0.0000000000e+00 +0.0000000000e+00 +1.1978393099e+02 1.1978393099e+02 0.0000000000e+00 0.0000e+00 -1.0000e+00
       21 -1    0    0  501  502 -0.0000000000e+00 -0.0000000000e+00 -3.2610613253e+01 3.2610613253e+01 0.0000000000e+00 0.0000e+00 -1.0000e+00
       25  2    1    2    0    0 -8.8817841970e-16 -7.1054273576e-15 +8.7173317736e+01 1.5239454424e+02 1.2499963916e+02 0.0000e+00 0.0000e+00
  9000006  2    3    3    0    0 -6.4462125663e+00 +4.4497583299e+01 +2.3017915385e+01 6.4431459732e+01 3.9999999982e+01 0.0000e+00 0.0000e+00
  9000006  2    3    3    0    0 +6.4462125663e+00 -4.4497583299e+01 +6.4155402351e+01 8.7963084510e+01 4.0000000122e+01 0.0000e+00 0.0000e+00
      -11  1    4    4    0    0 -1.2532579333e+01 +7.5349972895e+00 +2.2660715639e+01 2.6969422726e+01 0.0000000000e+00 0.0000e+00 1.0000e+00
       13  1    4    4    0    0 +6.0863667666e+00 +3.6962586010e+01 +3.5719974528e-01 3.7462037005e+01 0.0000000000e+00 0.0000e+00 1.0000e+00
      -11  1    5    5    0    0 -5.4939116763e-01 -2.3752329172e+01 +6.1475271790e+01 6.5906631027e+01 0.0000000000e+00 0.0000e+00 1.0000e+00
       13  1    5    5    0    0 +6.9956037339e+00 -2.0745254127e+01 +2.6801305615e+00 2.2056453483e+01 0.0000000000e+00 0.0000e+00 1.0000e+00
<mgrwt>
<rscale>  0 0.12499964E+03</rscale>
<asrwt>0</asrwt>
<pdfrwt beam="1">  1       21 0.29945982E-01 0.12499964E+03</pdfrwt>
<pdfrwt beam="2">  1       21 0.81526536E-02 0.12499964E+03</pdfrwt>
<totfact> 0.12400193E+06</totfact>
</mgrwt>
</event>
<event>
 9      1 +9.5563000e+06 1.25078800e+02 7.81860800e-03 1.23494600e-01
       21 -1    0    0  502  501 +0.0000000000e+00 +0.0000000000e+00 +1.5847609929e+01 1.5847609929e+01 0.0000000000e+00 0.0000e+00 -1.0000e+00
       21 -1    0    0  501  502 -0.0000000000e+00 -0.0000000000e+00 -2.4679911450e+02 2.4679911450e+02 0.0000000000e+00 0.0000e+00 -1.0000e+00
       25  2    1    2    0    0 +1.7763568394e-15 +0.0000000000e+00 -2.3095150457e+02 2.6264672443e+02 1.2507879273e+02 0.0000e+00 0.0000e+00
  9000006  2    3    3    0    0 +1.2845902293e+01 -4.2854424378e+01 -1.5242698274e+02 1.6381545700e+02 3.9999999867e+01 0.0000e+00 0.0000e+00
  9000006  2    3    3    0    0 -1.2845902293e+01 +4.2854424378e+01 -7.8524521834e+01 9.8831267434e+01 3.9999999987e+01 0.0000e+00 0.0000e+00
      -11  1    4    4    0    0 -9.5389060107e+00 -2.7304607743e+00 -5.7548091916e+01 5.8397166259e+01 0.0000000000e+00 0.0000e+00 1.0000e+00
       13  1    4    4    0    0 +2.2384808304e+01 -4.0123963604e+01 -9.4878890824e+01 1.0541829074e+02 0.0000000000e+00 0.0000e+00 1.0000e+00
      -11  1    5    5    0    0 +1.0774170846e+01 +2.9365052202e+01 -3.0790771148e+01 4.3891464274e+01 0.0000000000e+00 0.0000e+00 1.0000e+00
       13  1    5    5    0    0 -2.3620073139e+01 +1.3489372177e+01 -4.7733750685e+01 5.4939803160e+01 0.0000000000e+00 0.0000e+00 1.0000e+00
<mgrwt>
<rscale>  0 0.12507879E+03</rscale>
<asrwt>0</asrwt>
<pdfrwt beam="1">  1       21 0.39619026E-02 0.12507879E+03</pdfrwt>
<pdfrwt beam="2">  1       21 0.61699777E-01 0.12507879E+03</pdfrwt>
<totfact> 0.97440462E+05</totfact>
</mgrwt>
</event>
<event>
 9      1 +9.5563000e+06 1.24970900e+02 7.81860800e-03 1.23511500e-01
       21 -1    0    0  502  501 +0.0000000000e+00 +0.0000000000e+00 +1.6304926726e+02 1.6304926726e+02 0.0000000000e+00 0.0000e+00 1.0000e+00
       21 -1    0    0  501  502 -0.0000000000e+00 -0.0000000000e+00 -2.3946340133e+01 2.3946340133e+01 0.0000000000e+00 0.0000e+00 1.0000e+00
       25  2    1    2    0    0 +7.1054273576e-15 -1.7763568394e-15 +1.3910292713e+02 1.8699560739e+02 1.2497092802e+02 0.0000e+00 0.0000e+00
  9000006  2    3    3    0    0 -3.4696365882e+01 +3.1185543934e+00 +2.0130761410e+01 5.6734563830e+01 3.9999999889e+01 0.0000e+00 0.0000e+00
  9000006  2    3    3    0    0 +3.4696365882e+01 -3.1185543934e+00 +1.1897216572e+02 1.3026104356e+02 4.0000000851e+01 0.0000e+00 0.0000e+00
      -11  1    4    4    0    0 -8.7324921004e+00 -9.9289378691e+00 -8.6781855544e+00 1.5816166729e+01 0.0000000000e+00 0.0000e+00 1.0000e+00
       13  1    4    4    0    0 -2.5963873781e+01 +1.3047492263e+01 +2.8808946965e+01 4.0918397101e+01 0.0000000000e+00 0.0000e+00 1.0000e+00
      -11  1    5    5    0    0 -8.0159796083e+00 +2.7509740358e+00 +3.3176115991e+01 3.4241472800e+01 0.0000000000e+00 0.0000e+00 1.0000e+00
       13  1    5    5    0    0 +4.2712345490e+01 -5.8695284293e+00 +8.5796049725e+01 9.6019570764e+01 0.0000000000e+00 0.0000e+00 1.0000e+00
<mgrwt>
<rscale>  0 0.12497093E+03</rscale>
<asrwt>0</asrwt>
<pdfrwt beam="1">  1       21 0.40762314E-01 0.12497093E+03</pdfrwt>
<pdfrwt beam="2">  1       21 0.59865855E-02 0.12497093E+03</pdfrwt>
<totfact> 0.11475754E+06</totfact>
</mgrwt>
</event>
<event>
 9      1 +9.5563000e+06 1.25059300e+02 7.81860800e-03 1.23497700e-01
       21 -1    0    0  502  501 +0.0000000000e+00 +0.0000000000e+00 +3.3646141801e+01 3.3646141801e+01 0.0000000000e+00 0.0000e+00 -1.0000e+00
       21 -1    0    0  501  502 -0.0000000000e+00 -0.0000000000e+00 -1.1620816572e+02 1.1620816572e+02 0.0000000000e+00 0.0000e+00 -1.0000e+00
       25  2    1    2    0    0 +0.0000000000e+00 -8.8817841970e-16 -8.2562023915e+01 1.4985430752e+02 1.2505928869e+02 0.0000e+00 0.0000e+00
  9000006  2    3    3    0    0 +2.6822534649e+01 +3.2517564405e+00 -8.8910154917e+01 1.0116836439e+02 4.0000000257e+01 0.0000e+00 0.0000e+00
  9000006  2    3    3    0    0 -2.6822534649e+01 -3.2517564405e+00 +6.3481310023e+00 4.8685943128e+01 4.0000000077e+01 0.0000e+00 0.0000e+00
      -11  1    5    5    0    0 -3.2621945592e+01 -1.2538032434e+01 -1.8667642017e+00 3.4998262816e+01 0.0000000000e+00 0.0000e+00 1.0000e+00
       13  1    4    4    0    0 -4.4748725875e+00 -1.0671849596e+00 -5.3560157061e+01 5.3757360360e+01 0.0000000000e+00 0.0000e+00 1.0000e+00
      -11  1    4    4    0    0 +3.1297407236e+01 +4.3189414000e+00 -3.5349997856e+01 4.7411004028e+01 0.0000000000e+00 0.0000e+00 1.0000e+00
       13  1    5    5    0    0 +5.7994109434e+00 +9.2862759937e+00 +8.2148952041e+00 1.3687680312e+01 0.0000000000e+00 0.0000e+00 1.0000e+00
<mgrwt>
<rscale>  0 0.12505929E+03</rscale>
<asrwt>0</asrwt>
<pdfrwt beam="1">  1       21 0.84115356E-02 0.12505929E+03</pdfrwt>
<pdfrwt beam="2">  1       21 0.29052041E-01 0.12505929E+03</pdfrwt>
<totfact> 0.12454119E+06</totfact>
</mgrwt>
</event>
<event>
 9      1 +9.5563000e+06 1.24998000e+02 7.81860800e-03 1.23507200e-01
       21 -1    0    0  502  501 +0.0000000000e+00 +0.0000000000e+00 +5.7577675423e+01 5.7577675423e+01 0.0000000000e+00 0.0000e+00 -1.0000e+00
       21 -1    0    0  501  502 -0.0000000000e+00 -0.0000000000e+00 -6.7840916426e+01 6.7840916426e+01 0.0000000000e+00 0.0000e+00 -1.0000e+00
       25  2    1    2    0    0 +0.0000000000e+00 +7.1054273576e-15 -1.0263241003e+01 1.2541859185e+02 1.2499795625e+02 0.0000e+00 0.0000e+00
  9000006  2    3    3    0    0 -6.8430093589e+00 -4.6974178707e+01 -1.2417048031e+01 6.3305476262e+01 4.0000000008e+01 0.0000e+00 0.0000e+00
  9000006  2    3    3    0    0 +6.8430093589e+00 +4.6974178707e+01 +2.1538070286e+00 6.2113115587e+01 4.0000000011e+01 0.0000e+00 0.0000e+00
      -11  1    4    4    0    0 +8.6846441754e+00 -3.5211068605e+01 +5.6895376535e+00 3.6709852022e+01 0.0000000000e+00 0.0000e+00 1.0000e+00
       13  1    4    4    0    0 -1.5527653534e+01 -1.1763110102e+01 -1.8106585685e+01 2.6595624240e+01 0.0000000000e+00 0.0000e+00 1.0000e+00
      -11  1    5    5    0    0 -3.4738708516e+00 +2.9789427136e+01 -1.6927930802e+01 3.4438823862e+01 0.0000000000e+00 0.0000e+00 1.0000e+00
       13  1    5    5    0    0 +1.0316880211e+01 +1.7184751572e+01 +1.9081737830e+01 2.7674291725e+01 0.0000000000e+00 0.0000e+00 1.0000e+00
<mgrwt>
<rscale>  0 0.12499796E+03</rscale>
<asrwt>0</asrwt>
<pdfrwt beam="1">  1       21 0.14394419E-01 0.12499796E+03</pdfrwt>
<pdfrwt beam="2">  1       21 0.16960229E-01 0.12499796E+03</pdfrwt>
<totfact> 0.13214394E+06</totfact>
</mgrwt>
</event>
<event>
 9      1 +9.5563000e+06 1.24990300e+02 7.81860800e-03 1.23508400e-01
       21 -1    0    0  502  501 +0.0000000000e+00 +0.0000000000e+00 +4.5309849666e+00 4.5309849666e+00 0.0000000000e+00 0.0000e+00 -1.0000e+00
       21 -1    0    0  501  502 -0.0000000000e+00 -0.0000000000e+00 -8.6198611073e+02 8.6198611073e+02 0.0000000000e+00 0.0000e+00 -1.0000e+00
       25  2    1    2    0    0 +0.0000000000e+00 +0.0000000000e+00 -8.5745512576e+02 8.6651709570e+02 1.2499033737e+02 0.0000e+00 0.0000e+00
  9000006  2    3    3    0    0 +4.1124782611e+01 -2.4771658413e+01 -4.3478444885e+02 4.3925209137e+02 4.0000000057e+01 0.0000e+00 0.0000e+00
  9000006  2    3    3    0    0 -4.1124782611e+01 +2.4771658413e+01 -4.2267067691e+02 4.2726500433e+02 3.9999999946e+01 0.0000e+00 0.0000e+00
      -11  1    5    5    0    0 -4.5537356073e+01 +2.2738596416e+01 -2.8505190307e+02 2.8956049801e+02 0.0000000000e+00 0.0000e+00 1.0000e+00
       13  1    4    4    0    0 +5.7658629603e+00 +5.8309301437e-01 -2.2145310276e+02 2.2152891887e+02 0.0000000000e+00 0.0000e+00 1.0000e+00
      -11  1    4    4    0    0 +3.5358919651e+01 -2.5354751427e+01 -2.1333134609e+02 2.1772317250e+02 0.0000000000e+00 0.0000e+00 1.0000e+00
       13  1    5    5    0    0 +4.4125734613e+00 +2.0330619971e+00 -1.3761877384e+02 1.3770450631e+02 0.0000000000e+00 0.0000e+00 1.0000e+00
<mgrwt>
<rscale>  0 0.12499034E+03</rscale>
<asrwt>0</asrwt>
<pdfrwt beam="1">  1       21 0.11327465E-02 0.12499034E+03</pdfrwt>
<pdfrwt beam="2">  1       21 0.21549647E+00 0.12499034E+03</pdfrwt>
<totfact> 0.34117044E+05</totfact>
</mgrwt>
</event>
<event>
 9      1 +9.5563000e+06 1.24988900e+02 7.81860800e-03 1.23508700e-01
       21 -1    0    0  502  501 +0.0000000000e+00 +0.0000000000e+00 +1.9022982677e+01 1.9022982677e+01 0.0000000000e+00 0.0000e+00 1.0000e+00
       21 -1    0    0  501  502 -0.0000000000e+00 -0.0000000000e+00 -2.0530736729e+02 2.0530736729e+02 0.0000000000e+00 0.0000e+00 1.0000e+00
       25  2    1    2    0    0 +0.0000000000e+00 -1.7763568394e-15 -1.8628438461e+02 2.2433034997e+02 1.2498893537e+02 0.0000e+00 0.0000e+00
  9000006  2    3    3    0    0 +3.9455752923e+01 -1.3861998795e+01 -5.0796774074e+01 7.7001452425e+01 3.9999999624e+01 0.0000e+00 0.0000e+00
  9000006  2    3    3    0    0 -3.9455752923e+01 +1.3861998795e+01 -1.3548761054e+02 1.4732889754e+02 3.9999999898e+01 0.0000e+00 0.0000e+00
      -11  1    5    5    0    0 -1.7017542020e+00 -2.4669400900e+00 -6.9539496893e+01 6.9604047216e+01 0.0000000000e+00 0.0000e+00 1.0000e+00
       13  1    4    4    0    0 +1.9648959544e+01 -1.8884174438e-01 -4.9085802976e+01 5.2872803275e+01 0.0000000000e+00 0.0000e+00 1.0000e+00
      -11  1    4    4    0    0 +1.9806793379e+01 -1.3673157051e+01 -1.7109710981e+00 2.4128649150e+01 0.0000000000e+00 0.0000e+00 1.0000e+00
       13  1    5    5    0    0 -3.7753998721e+01 +1.6328938885e+01 -6.5948113645e+01 7.7724850324e+01 0.0000000000e+00 0.0000e+00 1.0000e+00
<mgrwt>
<rscale>  0 0.12498894E+03</rscale>
<asrwt>0</asrwt>
<pdfrwt beam="1">  1       21 0.47557457E-02 0.12498894E+03</pdfrwt>
<pdfrwt beam="2">  1       21 0.51326841E-01 0.12498894E+03</pdfrwt>
<totfact> 0.10577913E+06</totfact>
</mgrwt>
</event>
<event>
 9      1 +9.5563000e+06 1.24999400e+02 7.81860800e-03 1.23507000e-01
       21 -1    0    0  502  501 +0.0000000000e+00 +0.0000000000e+00 +5.8575432698e+02 5.8575432698e+02 0.0000000000e+00 0.0000e+00 -1.0000e+00
       21 -1    0    0  501  502 -0.0000000000e+00 -0.0000000000e+00 -6.6686905541e+00 6.6686905541e+00 0.0000000000e+00 0.0000e+00 -1.0000e+00
       25  2    1    2    0    0 +0.0000000000e+00 +0.0000000000e+00 +5.7908563642e+02 5.9242301753e+02 1.2499942956e+02 0.0000e+00 0.0000e+00
  9000006  2    3    3    0    0 +2.8885559092e+00 +1.6566983228e+00 +6.2489865393e+01 7.4270261061e+01 3.9999999959e+01 0.0000e+00 0.0000e+00
  9000006  2    3    3    0    0 -2.8885559092e+00 -1.6566983228e+00 +5.1659577103e+02 5.1815275647e+02 3.9999999834e+01 0.0000e+00 0.0000e+00
      -11  1    5    5    0    0 -1.0899946147e+01 +1.4532208192e+01 +1.4736371077e+02 1.4847914720e+02 0.0000000000e+00 0.0000e+00 1.0000e+00
       13  1    4    4    0    0 +1.2865926880e+01 -9.9710425745e+00 +8.9384790625e+00 1.8570141961e+01 0.0000000000e+00 0.0000e+00 1.0000e+00
      -11  1    4    4    0    0 -9.9773709707e+00 +1.1627740897e+01 +5.3551386330e+01 5.5700119100e+01 0.0000000000e+00 0.0000e+00 1.0000e+00
       13  1    5    5    0    0 +8.0113902380e+00 -1.6188906515e+01 +3.6923206026e+02 3.6967360927e+02 0.0000000000e+00 0.0000e+00 1.0000e+00
<mgrwt>
<rscale>  0 0.12499943E+03</rscale>
<asrwt>0</asrwt>
<pdfrwt beam="1">  1       21 0.14643841E+00 0.12499943E+03</pdfrwt>
<pdfrwt beam="2">  1       21 0.16671746E-02 0.12499943E+03</pdfrwt>
<totfact> 0.53556363E+05</totfact>
</mgrwt>
</event>
<event>
 9      1 +9.5563000e+06 1.24997400e+02 7.81860800e-03 1.23507300e-01
       21 -1    0    0  502  501 +0.0000000000e+00 +0.0000000000e+00 +2.5959301421e+01 2.5959301421e+01 0.0000000000e+00 0.0000e+00 -1.0000e+00
       21 -1    0    0  501  502 -0.0000000000e+00 -0.0000000000e+00 -1.5046959158e+02 1.5046959158e+02 0.0000000000e+00 0.0000e+00 -1.0000e+00
       25  2    1    2    0    0 +1.7763568394e-15 +1.7763568394e-15 -1.2451029016e+02 1.7642889300e+02 1.2499736769e+02 0.0000e+00 0.0000e+00
  9000006  2    3    3    0    0 -9.0726372307e+00 -1.3207896829e+01 +1.6409278045e+00 4.3121387289e+01 4.0000001409e+01 0.0000e+00 0.0000e+00
  9000006  2    3    3    0    0 +9.0726372307e+00 +1.3207896829e+01 -1.2615121796e+02 1.3330750571e+02 4.0000000004e+01 0.0000e+00 0.0000e+00
      -11  1    5    5    0    0 +7.6071250972e-01 +1.4012777695e+01 -1.2385399092e+02 1.2464649088e+02 0.0000000000e+00 0.0000e+00 1.0000e+00
       13  1    4    4    0    0 -3.5376687643e+00 +6.7880925726e-01 -1.8045954130e+01 1.8401965731e+01 0.0000000000e+00 0.0000e+00 1.0000e+00
      -11  1    4    4    0    0 -5.5349684664e+00 -1.3886706087e+01 +1.9686881935e+01 2.4719421558e+01 0.0000000000e+00 0.0000e+00 1.0000e+00
       13  1    5    5    0    0 +8.3119247210e+00 -8.0488086526e-01 -2.2972270420e+00 8.6610148283e+00 0.0000000000e+00 0.0000e+00 1.0000e+00
<mgrwt>
<rscale>  0 0.12499737E+03</rscale>
<asrwt>0</asrwt>
<pdfrwt beam="1">  1       21 0.64898255E-02 0.12499737E+03</pdfrwt>
<pdfrwt beam="2">  1       21 0.37617397E-01 0.12499737E+03</pdfrwt>
<totfact> 0.11740798E+06</totfact>
</mgrwt>
</event>
<event>
 9      1 +9.5563000e+06 1.25015700e+02 7.81860800e-03 1.23504500e-01
       21 -1    0    0  502  501 +0.0000000000e+00 +0.0000000000e+00 +1.5572189465e+01 1.5572189465e+01 0.0000000000e+00 0.0000e+00 1.0000e+00
       21 -1    0    0  501  502 -0.0000000000e+00 -0.0000000000e+00 -2.5091080008e+02 2.5091080008e+02 0.0000000000e+00 0.0000e+00 1.0000e+00
       25  2    1    2    0    0 -1.7763568394e-15 +0.0000000000e+00 -2.3533861062e+02 2.6648298955e+02 1.2501568730e+02 0.0000e+00 0.0000e+00
  9000006  2    3    3    0    0 -1.1461633107e+01 +2.4358602813e+01 -2.0246612739e+02 2.0812794931e+02 3.9999999737e+01 0.0000e+00 0.0000e+00
  9000006  2    3    3    0    0 +1.1461633107e+01 -2.4358602813e+01 -3.2872483233e+01 5.8355040243e+01 4.0000000042e+01 0.0000e+00 0.0000e+00
      -11  1    4    4    0    0 -2.6434073288e+01 +1.7182887578e+01 -1.3835796347e+02 1.4190467897e+02 0.0000000000e+00 0.0000e+00 1.0000e+00
       13  1    4    4    0    0 +1.4972440182e+01 +7.1757152347e+00 -6.4108163914e+01 6.6223270340e+01 0.0000000000e+00 0.0000e+00 1.0000e+00
      -11  1    5    5    0    0 -9.2237970242e+00 -2.4455882663e+01 -2.5157064103e+01 3.6277355232e+01 0.0000000000e+00 0.0000e+00 1.0000e+00
       13  1    5    5    0    0 +2.0685430131e+01 +9.7279850213e-02 -7.7154191304e+00 2.2077685010e+01 0.0000000000e+00 0.0000e+00 1.0000e+00
<mgrwt>
<rscale>  0 0.12501569E+03</rscale>
<asrwt>0</asrwt>
<pdfrwt beam="1">  1       21 0.38930473E-02 0.12501569E+03</pdfrwt>
<pdfrwt beam="2">  1       21 0.62727702E-01 0.12501569E+03</pdfrwt>
<totfact> 0.96838231E+05</totfact>
</mgrwt>
</event>
<event>
 9      1 +9.5563000e+06 1.24996600e+02 7.81860800e-03 1.23507500e-01
       21 -1    0    0  502  501 +0.0000000000e+00 +0.0000000000e+00 +1.4863211592e+02 1.4863211592e+02 0.0000000000e+00 0.0000e+00 -1.0000e+00
       21 -1    0    0  501  502 -0.0000000000e+00 -0.0000000000e+00 -2.6279899134e+01 2.6279899134e+01 0.0000000000e+00 0.0000e+00 -1.0000e+00
       25  2    1    2    0    0 +0.0000000000e+00 +3.5527136788e-15 +1.2235221679e+02 1.7491201506e+02 1.2499659219e+02 0.0000e+00 0.0000e+00
  9000006  2    3    3    0    0 -3.0861224256e+01 +2.4083439287e+01 +1.0009697076e+02 1.1468143160e+02 3.9999999859e+01 0.0000e+00 0.0000e+00
  9000006  2    3    3    0    0 +3.0861224256e+01 -2.4083439287e+01 +2.2255246033e+01 6.0230583457e+01 3.9999999964e+01 0.0000e+00 0.0000e+00
      -11  1    5    5    0    0 +2.4970212461e+01 -3.3481742882e+01 +2.5165568699e+01 4.8763146583e+01 0.0000000000e+00 0.0000e+00 1.0000e+00
       13  1    4    4    0    0 -2.7938095763e+01 +2.0946037519e-02 +3.2433897687e+01 4.2807655306e+01 0.0000000000e+00 0.0000e+00 1.0000e+00
      -11  1    4    4    0    0 -2.9231284927e+00 +2.4062493250e+01 +6.7663073070e+01 7.1873776294e+01 0.0000000000e+00 0.0000e+00 1.0000e+00
       13  1    5    5    0    0 +5.8910117954e+00 +9.3983035947e+00 -2.9103226665e+00 1.1467436874e+01 0.0000000000e+00 0.0000e+00 1.0000e+00
<mgrwt>
<rscale>  0 0.12499659E+03</rscale>
<asrwt>0</asrwt>
<pdfrwt beam="1">  1       21 0.37158027E-01 0.12499659E+03</pdfrwt>
<pdfrwt beam="2">  1       21 0.65699752E-02 0.12499659E+03</pdfrwt>
<totfact> 0.11780964E+06</totfact>
</mgrwt>
</event>
<event>
 9      1 +9.5563000e+06 1.24955100e+02 7.81860800e-03 1.23514000e-01
       21 -1    0    0  502  501 +0.0000000000e+00 +0.0000000000e+00 +8.5713558813e+01 8.5713558813e+01 0.0000000000e+00 0.0000e+00 1.0000e+00
       21 -1    0    0  501  502 -0.0000000000e+00 -0.0000000000e+00 -4.5540547672e+01 4.5540547672e+01 0.0000000000e+00 0.0000e+00 1.0000e+00
       25  2    1    2    0    0 +0.0000000000e+00 +0.0000000000e+00 +4.0173011141e+01 1.3125410649e+02 1.2495507051e+02 0.0000e+00 0.0000e+00
  9000006  2    3    3    0    0 +2.8467610374e+01 +2.2084880539e+01 +5.3391235212e+01 7.5820648787e+01 3.9999999952e+01 0.0000e+00 0.0000e+00
  9000006  2    3    3    0    0 -2.8467610374e+01 -2.2084880539e+01 -1.3218224071e+01 5.5433457698e+01 3.9999999950e+01 0.0000e+00 0.0000e+00
      -11  1    5    5    0    0 +5.9134009957e+00 -1.1367503470e+01 +6.5084853959e+00 1.4371806728e+01 0.0000000000e+00 0.0000e+00 1.0000e+00
       13  1    4    4    0    0 +2.0475377775e+01 +1.7627629145e+01 +5.9136057198e+01 6.5015749363e+01 0.0000000000e+00 0.0000e+00 1.0000e+00
      -11  1    4    4    0    0 +7.9922325993e+00 +4.4572513946e+00 -5.7448219859e+00 1.0804899424e+01 0.0000000000e+00 0.0000e+00 1.0000e+00
       13  1    5    5    0    0 -3.4381011370e+01 -1.0717377069e+01 -1.9726709467e+01 4.1061650971e+01 0.0000000000e+00 0.0000e+00 1.0000e+00
<mgrwt>
<rscale>  0 0.12495507E+03</rscale>
<asrwt>0</asrwt>
<pdfrwt beam="1">  1       21 0.21428389E-01 0.12495507E+03</pdfrwt>
<pdfrwt beam="2">  1       21 0.11385137E-01 0.12495507E+03</pdfrwt>
<totfact> 0.13045869E+06</totfact>
</mgrwt>
</event>
<event>
 9      1 +9.5563000e+06 1.24998500e+02 7.81860800e-03 1.23507200e-01
       21 -1    0    0  502  501 +0.0000000000e+00 +0.0000000000e+00 +3.9292924827e+02 3.9292924827e+02 0.0000000000e+00 0.0000e+00 -1.0000e+00
       21 -1    0    0  501  502 -0.0000000000e+00 -0.0000000000e+00 -9.9411237936e+00 9.9411237936e+00 0.0000000000e+00 0.0000e+00 -1.0000e+00
       25  2    1    2    0    0 -4.4408920985e-16 +0.0000000000e+00 +3.8298812448e+02 4.0287037207e+02 1.2499853278e+02 0.0000e+00 0.0000e+00
  9000006  2    3    3    0    0 -3.2164962679e+00 -4.1415512410e+01 +1.1383594142e+02 1.2760960813e+02 4.0000000119e+01 0.0000e+00 0.0000e+00
  9000006  2    3    3    0    0 +3.2164962679e+00 +4.1415512410e+01 +2.6915218305e+02 2.7526076394e+02 4.0000000072e+01 0.0000e+00 0.0000e+00
      -11  1    5    5    0    0 +1.5467342207e+00 -7.9009115425e+00 +2.9340323882e+01 3.0424848322e+01 0.0000000000e+00 0.0000e+00 1.0000e+00
       13  1    4    4    0    0 +1.1386364910e+01 -4.0512695214e+01 +9.3732415445e+01 1.0274577113e+02 0.0000000000e+00 0.0000e+00 1.0000e+00
      -11  1    4    4    0    0 -1.4602861178e+01 -9.0281719599e-01 +2.0103525980e+01 2.4863836999e+01 0.0000000000e+00 0.0000e+00 1.0000e+00
       13  1    5    5    0    0 +1.6697620472e+00 +4.9316423953e+01 +2.3981185917e+02 2.4483591562e+02 0.0000000000e+00 0.0000e+00 1.0000e+00
<mgrwt>
<rscale>  0 0.12499853E+03</rscale>
<asrwt>0</asrwt>
<pdfrwt beam="1">  1       21 0.98232260E-01 0.12499853E+03</pdfrwt>
<pdfrwt beam="2">  1       21 0.24852823E-02 0.12499853E+03</pdfrwt>
<totfact> 0.74514156E+05</totfact>
</mgrwt>
</event>
<event>
 9      1 +9.5563000e+06 1.24994700e+02 7.81860800e-03 1.23507800e-01
       21 -1    0    0  502  501 +0.0000000000e+00 +0.0000000000e+00 +1.0138478397e+01 1.0138478397e+01 0.0000000000e+00 0.0000e+00 -1.0000e+00
       21 -1    0    0  501  502 -0.0000000000e+00 -0.0000000000e+00 -3.8525706987e+02 3.8525706987e+02 0.0000000000e+00 0.0000e+00 -1.0000e+00
       25  2    1    2    0    0 +1.7763568394e-15 +1.7763568394e-15 -3.7511859147e+02 3.9539554827e+02 1.2499472757e+02 0.0000e+00 0.0000e+00
  9000006  2    3    3    0    0 -8.3289917594e+00 +2.1036262747e+00 -3.3701040923e+02 3.3948462892e+02 3.9999999973e+01 0.0000e+00 0.0000e+00
  9000006  2    3    3    0    0 +8.3289917594e+00 -2.1036262747e+00 -3.8108182243e+01 5.5910919344e+01 4.0000000010e+01 0.0000e+00 0.0000e+00
      -11  1    5    5    0    0 +2.5441147388e-01 +1.8336063216e+01 -2.2125237457e+01 2.8736772122e+01 0.0000000000e+00 0.0000e+00 1.0000e+00
       13  1    4    4    0    0 -1.4105276562e+01 +7.3582331412e+00 -3.2341645440e+02 3.2380751288e+02 0.0000000000e+00 0.0000e+00 1.0000e+00
      -11  1    4    4    0    0 +5.7762848031e+00 -5.2546068665e+00 -1.3593954834e+01 1.5677116045e+01 0.0000000000e+00 0.0000e+00 1.0000e+00
       13  1    5    5    0    0 +8.0745802855e+00 -2.0439689490e+01 -1.5982944786e+01 2.7174147223e+01 0.0000000000e+00 0.0000e+00 1.0000e+00
<mgrwt>
<rscale>  0 0.12499473E+03</rscale>
<asrwt>0</asrwt>
<pdfrwt beam="1">  1       21 0.25346197E-02 0.12499473E+03</pdfrwt>
<pdfrwt beam="2">  1       21 0.96314265E-01 0.12499473E+03</pdfrwt>
<totfact> 0.75549758E+05</totfact>
</mgrwt>
</event>
<event>
 9      1 +9.5563000e+06 1.24999300e+02 7.81860800e-03 1.23507000e-01
       21 -1    0    0  502  501 +0.0000000000e+00 +0.0000000000e+00 +3.8811916358e+01 3.8811916358e+01 0.0000000000e+00 0.0000e+00 1.0000e+00
       21 -1    0    0  501  502 -0.0000000000e+00 -0.0000000000e+00 -1.0064449145e+02 1.0064449145e+02 0.0000000000e+00 0.0000e+00 1.0000e+00
       25  2    1    2    0    0 +0.0000000000e+00 +0.0000000000e+00 -6.1832575092e+01 1.3945640781e+02 1.2499928934e+02 0.0000e+00 0.0000e+00
  9000006  2    3    3    0    0 +1.5405845048e-02 +4.5617681333e+01 -1.4172779794e+01 6.2304420165e+01 3.9999999968e+01 0.0000e+00 0.0000e+00
  9000006  2    3    3    0    0 -1.5405845048e-02 -4.5617681333e+01 -4.7659795297e+01 7.7151987644e+01 4.0000000275e+01 0.0000e+00 0.0000e+00
      -11  1    4    4    0    0 +1.2161805268e+01 +2.4213879541e+01 -2.3617208400e+01 3.5944318083e+01 0.0000000000e+00 0.0000e+00 1.0000e+00
       13  1    4    4    0    0 -1.2146399423e+01 +2.1403801792e+01 +9.4444286056e+00 2.6360102082e+01 0.0000000000e+00 0.0000e+00 1.0000e+00
      -11  1    5    5    0    0 +5.5250350580e+00 +5.4358062710e+00 -1.0893030439e+00 7.8269140362e+00 0.0000000000e+00 0.0000e+00 1.0000e+00
       13  1    5    5    0    0 -5.5404409031e+00 -5.1053487604e+01 -4.6570492253e+01 6.9325073607e+01 0.0000000000e+00 0.0000e+00 1.0000e+00
<mgrwt>
<rscale>  0 0.12499929E+03</rscale>
<asrwt>0</asrwt>
<pdfrwt beam="1">  1       21 0.97029791E-02 0.12499929E+03</pdfrwt>
<pdfrwt beam="2">  1       21 0.25161123E-01 0.12499929E+03</pdfrwt>
<totfact> 0.12780409E+06</totfact>
</mgrwt>
</event>
<event>
 9      1 +9.5563000e+06 1.24997600e+02 7.81860800e-03 1.23507300e-01
       21 -1    0    0  502  501 +0.0000000000e+00 +0.0000000000e+00 +4.4270912651e+01 4.4270912651e+01 0.0000000000e+00 0.0000e+00 -1.0000e+00
       21 -1    0    0  501  502 -0.0000000000e+00 -0.0000000000e+00 -8.8231678523e+01 8.8231678523e+01 0.0000000000e+00 0.0000e+00 -1.0000e+00
       25  2    1    2    0    0 +3.5527136788e-15 +3.5527136788e-15 -4.3960765872e+01 1.3250259117e+02 1.2499755090e+02 0.0000e+00 0.0000e+00
  9000006  2    3    3    0    0 +1.6807646293e+01 +1.0778556485e+01 -6.8276688866e+01 8.1611154103e+01 3.9999999722e+01 0.0000e+00 0.0000e+00
  9000006  2    3    3    0    0 -1.6807646293e+01 -1.0778556485e+01 +2.4315922994e+01 5.0891437071e+01 4.0000000028e+01 0.0000e+00 0.0000e+00
      -11  1    4    4    0    0 -4.8629580568e+00 +2.0091152927e+01 -3.7686810558e+01 4.2983700133e+01 0.0000000000e+00 0.0000e+00 1.0000e+00
       13  1    4    4    0    0 +2.1670604350e+01 -9.3125964422e+00 -3.0589878307e+01 3.8627453971e+01 0.0000000000e+00 0.0000e+00 1.0000e+00
      -11  1    5    5    0    0 +1.2306526003e+01 -8.4962258598e-01 +1.3493659156e+01 1.8282540256e+01 0.0000000000e+00 0.0000e+00 1.0000e+00
       13  1    5    5    0    0 -2.9114172296e+01 -9.9289338992e+00 +1.0822263838e+01 3.2608896814e+01 0.0000000000e+00 0.0000e+00 1.0000e+00
<mgrwt>
<rscale>  0 0.12499755E+03</rscale>
<asrwt>0</asrwt>
<pdfrwt beam="1">  1       21 0.11067728E-01 0.12499755E+03</pdfrwt>
<pdfrwt beam="2">  1       21 0.22057919E-01 0.12499755E+03</pdfrwt>
<totfact> 0.12992523E+06</totfact>
</mgrwt>
</event>
<event>
 9      1 +9.5563000e+06 1.25010900e+02 7.81860800e-03 1.23505200e-01
       21 -1    0    0  502  501 +0.0000000000e+00 +0.0000000000e+00 +1.0979708888e+02 1.0979708888e+02 0.0000000000e+00 0.0000e+00 -1.0000e+00
       21 -1    0    0  501  502 -0.0000000000e+00 -0.0000000000e+00 -3.5583175524e+01 3.5583175524e+01 0.0000000000e+00 0.0000e+00 -1.0000e+00
       25  2    1    2    0    0 +7.1054273576e-15 +0.0000000000e+00 +7.4213913360e+01 1.4538026441e+02 1.2501086490e+02 0.0000e+00 0.0000e+00
  9000006  2    3    3    0    0 -3.8013227122e+01 +2.4806498888e+01 +1.8846144207e+01 6.3368328126e+01 4.0000000434e+01 0.0000e+00 0.0000e+00
  9000006  2    3    3    0    0 +3.8013227122e+01 -2.4806498888e+01 +5.5367769153e+01 8.2011936281e+01 4.0000000105e+01 0.0000e+00 0.0000e+00
      -11  1    4    4    0    0 -1.7130524141e+01 -8.6210310414e+00 -1.0711836693e+00 1.9207406592e+01 0.0000000000e+00 0.0000e+00 1.0000e+00
       13  1    4    4    0    0 -2.0882702982e+01 +3.3427529930e+01 +1.9917327877e+01 4.4160921534e+01 0.0000000000e+00 0.0000e+00 1.0000e+00
      -11  1    5    5    0    0 -6.3973555921e+00 -9.6655483678e+00 +2.0515507641e+01 2.3563425846e+01 0.0000000000e+00 0.0000e+00 1.0000e+00
       13  1    5    5    0    0 +4.4410582714e+01 -1.5140950520e+01 +3.4852261511e+01 5.8448510435e+01 0.0000000000e+00 0.0000e+00 1.0000e+00
<mgrwt>
<rscale>  0 0.12501086E+03</rscale>
<asrwt>0</asrwt>
<pdfrwt beam="1">  1       21 0.27449271E-01 0.12501086E+03</pdfrwt>
<pdfrwt beam="2">  1       21 0.88957941E-02 0.12501086E+03</pdfrwt>
<totfact> 0.12601142E+06</totfact>
</mgrwt>
</event>
<event>
 9      1 +9.5563000e+06 1.24996800e+02 7.81860800e-03 1.23507400e-01
       21 -1    0    0  502  501 +0.0000000000e+00 +0.0000000000e+00 +2.3080781827e+01 2.3080781827e+01 0.0000000000e+00 0.0000e+00 1.0000e+00
       21 -1    0    0  501  502 -0.0000000000e+00 -0.0000000000e+00 -1.6923373657e+02 1.6923373657e+02 0.0000000000e+00 0.0000e+00 1.0000e+00
       25  2    1    2    0    0 -7.1054273576e-15 -3.5527136788e-15 -1.4615295474e+02 1.9231451840e+02 1.2499675118e+02 0.0000e+00 0.0000e+00
  9000006  2    3    3    0    0 -4.3262938833e+01 -1.3839829516e+01 -9.7051515536e+01 1.1437753023e+02 3.9999999953e+01 0.0000e+00 0.0000e+00
  9000006  2    3    3    0    0 +4.3262938833e+01 +1.3839829516e+01 -4.9101439206e+01 7.7936988165e+01 4.0000000434e+01 0.0000e+00 0.0000e+00
      -11  1    5    5    0    0 +2.9401040203e+01 -3.5017824683e+00 -4.7116380752e+01 5.5647434628e+01 0.0000000000e+00 0.0000e+00 1.0000e+00
       13  1    4    4    0    0 +5.2447782866e+00 -6.6139551743e+00 -4.3349531342e+00 9.4891475380e+00 0.0000000000e+00 0.0000e+00 1.0000e+00
      -11  1    4    4    0    0 -4.8507717119e+01 -7.2258743420e+00 -9.2716562402e+01 1.0488838269e+02 0.0000000000e+00 0.0000e+00 1.0000e+00
       13  1    5    5    0    0 +1.3861898629e+01 +1.7341611985e+01 -1.9850584535e+00 2.2289553537e+01 0.0000000000e+00 0.0000e+00 1.0000e+00
<mgrwt>
<rscale>  0 0.12499675E+03</rscale>
<asrwt>0</asrwt>
<pdfrwt beam="1">  1       21 0.57701956E-02 0.12499675E+03</pdfrwt>
<pdfrwt beam="2">  1       21 0.42308433E-01 0.12499675E+03</pdfrwt>
<totfact> 0.11333799E+06</totfact>
</mgrwt>
</event>
<event>
 9      1 +9.5563000e+06 1.25002100e+02 7.81860800e-03 1.23506600e-01
       21 -1    0    0  502  501 +0.0000000000e+00 +0.0000000000e+00 +2.5080615831e+02 2.5080615831e+02 0.0000000000e+00 0.0000e+00 -1.0000e+00
       21 -1    0    0  501  502 -0.0000000000e+00 -0.0000000000e+00 -1.5575303836e+01 1.5575303836e+01 0.0000000000e+00 0.0000e+00 -1.0000e+00
       25  2    1    2    0    0 +0.0000000000e+00 +0.0000000000e+00 +2.3523085448e+02 2.6638146215e+02 1.2500211390e+02 0.0000e+00 0.0000e+00
  9000006  2    3    3    0    0 +1.6204766794e+01 +3.3654958307e+01 +5.3290820783e+01 7.6388234659e+01 4.0000001613e+01 0.0000e+00 0.0000e+00
  9000006  2    3    3    0    0 -1.6204766794e+01 -3.3654958307e+01 +1.8194003369e+02 1.8999322749e+02 3.9999999325e+01 0.0000e+00 0.0000e+00
      -11  1    4    4    0    0 +1.2664433862e+01 +3.7496359175e+01 +2.3259824080e+01 4.5906255050e+01 0.0000000000e+00 0.0000e+00 1.0000e+00
       13  1    4    4    0    0 +3.5403329325e+00 -3.8414008685e+00 +3.0030996703e+01 3.0481979609e+01 0.0000000000e+00 0.0000e+00 1.0000e+00
      -11  1    5    5    0    0 +1.6780545985e-01 +7.9352451656e+00 +5.1493190065e+01 5.2101294586e+01 0.0000000000e+00 0.0000e+00 1.0000e+00
       13  1    5    5    0    0 -1.6372572254e+01 -4.1590203472e+01 +1.3044684363e+02 1.3789193290e+02 0.0000000000e+00 0.0000e+00 1.0000e+00
<mgrwt>
<rscale>  0 0.12500211E+03</rscale>
<asrwt>0</asrwt>
<pdfrwt beam="1">  1       21 0.62701527E-01 0.12500211E+03</pdfrwt>
<pdfrwt beam="2">  1       21 0.38938268E-02 0.12500211E+03</pdfrwt>
<totfact> 0.96892455E+05</totfact>
</mgrwt>
</event>
<event>
 9      1 +9.5563000e+06 1.25021600e+02 7.81860800e-03 1.23503500e-01
       21 -1    0    0  502  501 +0.0000000000e+00 +0.0000000000e+00 +5.3490370594e+01 5.3490370594e+01 0.0000000000e+00 0.0000e+00 -1.0000e+00
       21 -1    0    0  501  502 -0.0000000000e+00 -0.0000000000e+00 -7.3052446982e+01 7.3052446982e+01 0.0000000000e+00 0.0000e+00 -1.0000e+00
       25  2    1    2    0    0 +0.0000000000e+00 +7.1054273576e-15 -1.9562076388e+01 1.2654281758e+02 1.2502163752e+02 0.0000e+00 0.0000e+00
  9000006  2    3    3    0    0 +3.3305079622e+01 -2.3795743013e+01 +1.5667206657e+01 5.9337400269e+01 3.9999999901e+01 0.0000e+00 0.0000e+00
  9000006  2    3    3    0    0 -3.3305079622e+01 +2.3795743013e+01 -3.5229283044e+01 6.7205417307e+01 4.0000000217e+01 0.0000e+00 0.0000e+00
      -11  1    5    5    0    0 -2.0737633922e+01 +3.1915997058e+01 -3.5771579253e+01 5.2232999254e+01 0.0000000000e+00 0.0000e+00 1.0000e+00
       13  1    4    4    0    0 +3.5254812029e+00 +6.1949302194e+00 +1.5513785063e+01 1.7072893870e+01 0.0000000000e+00 0.0000e+00 1.0000e+00
      -11  1    4    4    0    0 +2.9779598419e+01 -2.9990673233e+01 +1.5342159396e-01 4.2264506399e+01 0.0000000000e+00 0.0000e+00 1.0000e+00
       13  1    5    5    0    0 -1.2567445699e+01 -8.1202540444e+00 +5.4229620826e-01 1.4972418052e+01 0.0000000000e+00 0.0000e+00 1.0000e+00
<mgrwt>
<rscale>  0 0.12502164E+03</rscale>
<asrwt>0</asrwt>
<pdfrwt beam="1">  1       21 0.13372593E-01 0.12502164E+03</pdfrwt>
<pdfrwt beam="2">  1       21 0.18263112E-01 0.12502164E+03</pdfrwt>
<totfact> 0.13171275E+06</totfact>
</mgrwt>
</event>
<event>
 9      1 +9.5563000e+06 1.24994800e+02 7.81860800e-03 1.23507700e-01
       21 -1    0    0  502  501 +0.0000000000e+00 +0.0000000000e+00 +4.0867147291e+01 4.0867147291e+01 0.0000000000e+00 0.0000e+00 -1.0000e+00
       21 -1    0    0  501  502 -0.0000000000e+00 -0.0000000000e+00 -9.5576186217e+01 9.5576186217e+01 0.0000000000e+00 0.0000e+00 -1.0000e+00
       25  2    1    2    0    0 -7.1054273576e-15 -7.1054273576e-15 -5.4709038927e+01 1.3644333351e+02 1.2499481717e+02 0.0000e+00 0.0000e+00
  9000006  2    3    3    0    0 +2.2186014604e+01 +3.3584790452e+01 +1.2312008427e+00 5.6759785511e+01 4.0000000025e+01 0.0000e+00 0.0000e+00
  9000006  2    3    3    0    0 -2.2186014604e+01 -3.3584790452e+01 -5.5940239769e+01 7.9683547997e+01 4.0000000028e+01 0.0000e+00 0.0000e+00
      -11  1    5    5    0    0 -2.4132882012e+01 -2.3066310021e+01 -1.3658204248e+01 3.6069338717e+01 0.0000000000e+00 0.0000e+00 1.0000e+00
       13  1    4    4    0    0 +8.7976857396e+00 +3.8679001754e+01 -6.9383894712e+00 4.0269165617e+01 0.0000000000e+00 0.0000e+00 1.0000e+00
      -11  1    4    4    0    0 +1.3388328865e+01 -5.0942113020e+00 +8.1695903138e+00 1.6490619894e+01 0.0000000000e+00 0.0000e+00 1.0000e+00
       13  1    5    5    0    0 +1.9468674078e+00 -1.0518480431e+01 -4.2282035522e+01 4.3614209280e+01 0.0000000000e+00 0.0000e+00 1.0000e+00
<mgrwt>
<rscale>  0 0.12499482E+03</rscale>
<asrwt>0</asrwt>
<pdfrwt beam="1">  1       21 0.10216787E-01 0.12499482E+03</pdfrwt>
<pdfrwt beam="2">  1       21 0.23894046E-01 0.12499482E+03</pdfrwt>
<totfact> 0.12872737E+06</totfact>
</mgrwt>
</event>
<event>
 9      1 +9.5563000e+06 1.25006500e+02 7.81860800e-03 1.23505900e-01
       21 -1    0    0  502  501 +0.0000000000e+00 +0.0000000000e+00 +5.0832402878e+01 5.0832402878e+01 0.0000000000e+00 0.0000e+00 1.0000e+00
       21 -1    0    0  501  502 -0.0000000000e+00 -0.0000000000e+00 -7.6853617945e+01 7.6853617945e+01 0.0000000000e+00 0.0000e+00 1.0000e+00
       25  2    1    2    0    0 +4.4408920985e-16 +7.1054273576e-15 -2.6021215067e+01 1.2768602082e+02 1.2500646495e+02 0.0000e+00 0.0000e+00
  9000006  2    3    3    0    0 +2.2465928822e+00 +4.4458775033e+01 +5.4042656658e+00 6.0090231723e+01 4.0000000052e+01 0.0000e+00 0.0000e+00
  9000006  2    3    3    0    0 -2.2465928822e+00 -4.4458775033e+01 -3.1425480733e+01 6.7595789099e+01 4.0000000096e+01 0.0000e+00 0.0000e+00
      -11  1    4    4    0    0 +2.2322960106e+00 -6.0317952858e+00 +7.0886715584e+00 9.5715706293e+00 0.0000000000e+00 0.0000e+00 1.0000e+00
       13  1    4    4    0    0 +1.4296871607e-02 +5.0490570319e+01 -1.6844058926e+00 5.0518661094e+01 0.0000000000e+00 0.0000e+00 1.0000e+00
      -11  1    5    5    0    0 -5.8968383761e+00 -5.1520612633e+01 -2.8075413294e+01 5.8969272172e+01 0.0000000000e+00 0.0000e+00 1.0000e+00
       13  1    5    5    0    0 +3.6502454939e+00 +7.0618375998e+00 -3.3500674394e+00 8.6265169275e+00 0.0000000000e+00 0.0000e+00 1.0000e+00
<mgrwt>
<rscale>  0 0.12500646E+03</rscale>
<asrwt>0</asrwt>
<pdfrwt beam="1">  1       21 0.12708101E-01 0.12500646E+03</pdfrwt>
<pdfrwt beam="2">  1       21 0.19213404E-01 0.12500646E+03</pdfrwt>
<totfact> 0.13140621E+06</totfact>
</mgrwt>
</event>
<event>
 9      1 +9.5563000e+06 1.24993500e+02 7.81860800e-03 1.23507900e-01
       21 -1    0    0  502  501 +0.0000000000e+00 +0.0000000000e+00 +7.2443834419e+02 7.2443834419e+02 0.0000000000e+00 0.0000e+00 -1.0000e+00
       21 -1    0    0  501  502 -0.0000000000e+00 -0.0000000000e+00 -5.3915447598e+00 5.3915447598e+00 0.0000000000e+00 0.0000e+00 -1.0000e+00
       25  2    1    2    0    0 -1.7763568394e-15 +7.1054273576e-15 +7.1904679943e+02 7.2982988895e+02 1.2499346796e+02 0.0000e+00 0.0000e+00
  9000006  2    3    3    0    0 -9.4586493420e+00 -1.6848037453e+01 +1.0284090471e+02 1.1202488161e+02 4.0000000060e+01 0.0000e+00 0.0000e+00
  9000006  2    3    3    0    0 +9.4586493420e+00 +1.6848037453e+01 +6.1620589472e+02 6.1780500734e+02 3.9999999903e+01 0.0000e+00 0.0000e+00
      -11  1    4    4    0    0 -2.0732107252e+01 -2.2703909334e+01 +6.1193481544e+01 6.8483063261e+01 0.0000000000e+00 0.0000e+00 1.0000e+00
       13  1    4    4    0    0 +1.1273457910e+01 +5.8558718819e+00 +4.1647423161e+01 4.3541818344e+01 0.0000000000e+00 0.0000e+00 1.0000e+00
      -11  1    5    5    0    0 -1.0252422141e+01 +2.1578186618e+01 +3.6641138689e+02 3.6718937177e+02 0.0000000000e+00 0.0000e+00 1.0000e+00
       13  1    5    5    0    0 +1.9711071483e+01 -4.7301491657e+00 +2.4979450783e+02 2.5061563557e+02 0.0000000000e+00 0.0000e+00 1.0000e+00
<mgrwt>
<rscale>  0 0.12499347E+03</rscale>
<asrwt>0</asrwt>
<pdfrwt beam="1">  1       21 0.18110925E+00 0.12499347E+03</pdfrwt>
<pdfrwt beam="2">  1       21 0.13478887E-02 0.12499347E+03</pdfrwt>
<totfact> 0.42699633E+05</totfact>
</mgrwt>
</event>
<event>
 9      1 +9.5563000e+06 1.25027800e+02 7.81860800e-03 1.23502600e-01
       21 -1    0    0  502  501 +0.0000000000e+00 +0.0000000000e+00 +1.2055894717e+01 1.2055894717e+01 0.0000000000e+00 0.0000e+00 -1.0000e+00
       21 -1    0    0  501  502 -0.0000000000e+00 -0.0000000000e+00 -3.2415567171e+02 3.2415567171e+02 0.0000000000e+00 0.0000e+00 -1.0000e+00
       25  2    1    2    0    0 +0.0000000000e+00 -8.8817841970e-16 -3.1209977700e+02 3.3621156643e+02 1.2502778331e+02 0.0000e+00 0.0000e+00
  9000006  2    3    3    0    0 +6.9224879195e+00 +9.2161599882e-01 -2.8233942974e+01 4.9456301567e+01 4.0000000173e+01 0.0000e+00 0.0000e+00
  9000006  2    3    3    0    0 -6.9224879195e+00 -9.2161599882e-01 -2.8386583402e+02 2.8675526486e+02 3.9999999824e+01 0.0000e+00 0.0000e+00
      -11  1    5    5    0    0 +9.2392710852e+00 +5.2134948807e+00 -2.3128345855e+01 2.5445334367e+01 0.0000000000e+00 0.0000e+00 1.0000e+00
       13  1    4    4    0    0 -1.1863701947e+01 +1.3374196740e+01 -1.4869248273e+01 2.3253195620e+01 0.0000000000e+00 0.0000e+00 1.0000e+00
      -11  1    4    4    0    0 +1.8786189867e+01 -1.2452580741e+01 -1.3364694700e+01 2.6203105947e+01 0.0000000000e+00 0.0000e+00 1.0000e+00
       13  1    5    5    0    0 -1.6161759005e+01 -6.1351108796e+00 -2.6073748817e+02 2.6130993049e+02 0.0000000000e+00 0.0000e+00 1.0000e+00
<mgrwt>
<rscale>  0 0.12502778E+03</rscale>
<asrwt>0</asrwt>
<pdfrwt beam="1">  1       21 0.30139737E-02 0.12502778E+03</pdfrwt>
<pdfrwt beam="2">  1       21 0.81038918E-01 0.12502778E+03</pdfrwt>
<totfact> 0.84351230E+05</totfact>
</mgrwt>
</event>
<event>
 9      1 +9.5563000e+06 1.24999700e+02 7.81860800e-03 1.23507000e-01
       21 -1    0    0  502  501 +0.0000000000e+00 +0.0000000000e+00 +6.8559464577e+02 6.8559464577e+02 0.0000000000e+00 0.0000e+00 -1.0000e+00
       21 -1    0    0  501  502 -0.0000000000e+00 -0.0000000000e+00 -5.6975830936e+00 5.6975830936e+00 0.0000000000e+00 0.0000e+00 -1.0000e+00
       25  2    1    2    0    0 +1.7763568394e-15 +0.0000000000e+00 +6.7989706268e+02 6.9129222886e+02 1.2499971940e+02 0.0000e+00 0.0000e+00
  9000006  2    3    3    0    0 -1.0673984451e+01 +2.3269183867e+01 +5.6464983937e+02 5.6664347694e+02 4.0000000045e+01 0.0000e+00 0.0000e+00
  9000006  2    3    3    0    0 +1.0673984451e+01 -2.3269183867e+01 +1.1524722331e+02 1.2464875192e+02 4.0000000160e+01 0.0000e+00 0.0000e+00
      -11  1    4    4    0    0 -1.9763996146e+01 +9.1012156969e+00 +1.4189254042e+02 1.4355117798e+02 0.0000000000e+00 0.0000e+00 1.0000e+00
       13  1    4    4    0    0 +9.0900116940e+00 +1.4167968170e+01 +4.2275729894e+02 4.2309229896e+02 0.0000000000e+00 0.0000e+00 1.0000e+00
      -11  1    5    5    0    0 -7.4518602878e+00 -2.7063436059e+01 +5.7153883330e+01 6.3675161349e+01 0.0000000000e+00 0.0000e+00 1.0000e+00
       13  1    5    5    0    0 +1.8125844739e+01 +3.7942521922e+00 +5.8093339981e+01 6.0973590573e+01 0.0000000000e+00 0.0000e+00 1.0000e+00
<mgrwt>
<rscale>  0 0.12499972E+03</rscale>
<asrwt>0</asrwt>
<pdfrwt beam="1">  1       21 0.17139838E+00 0.12499972E+03</pdfrwt>
<pdfrwt beam="2">  1       21 0.14243981E-02 0.12499972E+03</pdfrwt>
<totfact> 0.45480883E+05</totfact>
</mgrwt>
</event>
<event>
 9      1 +9.5563000e+06 1.24999700e+02 7.81860800e-03 1.23507000e-01
       21 -1    0    0  502  501 +0.0000000000e+00 +0.0000000000e+00 +2.1164713489e+01 2.1164713489e+01 0.0000000000e+00 0.0000e+00 -1.0000e+00
       21 -1    0    0  501  502 -0.0000000000e+00 -0.0000000000e+00 -1.8456344965e+02 1.8456344965e+02 0.0000000000e+00 0.0000e+00 -1.0000e+00
       25  2    1    2    0    0 -3.5527136788e-15 +0.0000000000e+00 -1.6339873617e+02 2.0572816314e+02 1.2499972052e+02 0.0000e+00 0.0000e+00
  9000006  2    3    3    0    0 +1.7648639114e+01 +2.4666807792e+01 -1.4297874785e+02 1.5153497359e+02 4.0000000170e+01 0.0000e+00 0.0000e+00
  9000006  2    3    3    0    0 -1.7648639114e+01 -2.4666807792e+01 -2.0419988313e+01 5.4193189555e+01 4.0000000029e+01 0.0000e+00 0.0000e+00
      -11  1    5    5    0    0 -2.0396753110e+00 -2.8725356128e+01 -8.1819632353e-01 2.8809300673e+01 0.0000000000e+00 0.0000e+00 1.0000e+00
       13  1    4    4    0    0 +1.6553668282e+01 +2.1843914342e+01 -3.9870052814e+01 4.8381831702e+01 0.0000000000e+00 0.0000e+00 1.0000e+00
      -11  1    4    4    0    0 +1.0949708320e+00 +2.8228934495e+00 -1.0310869504e+02 1.0315314189e+02 0.0000000000e+00 0.0000e+00 1.0000e+00
       13  1    5    5    0    0 -1.5608963803e+01 +4.0585483364e+00 -1.9601791989e+01 2.5383888882e+01 0.0000000000e+00 0.0000e+00 1.0000e+00
<mgrwt>
<rscale>  0 0.12499972E+03</rscale>
<asrwt>0</asrwt>
<pdfrwt beam="1">  1       21 0.52911783E-02 0.12499972E+03</pdfrwt>
<pdfrwt beam="2">  1       21 0.46140863E-01 0.12499972E+03</pdfrwt>
<totfact> 0.11005303E+06</totfact>
</mgrwt>
</event>
<event>
 9      1 +9.5563000e+06 1.24980300e+02 7.81860800e-03 1.23510000e-01
       21 -1    0    0  502  501 +0.0000000000e+00 +0.0000000000e+00 +4.6866654339e+01 4.6866654339e+01 0.0000000000e+00 0.0000e+00 -1.0000e+00
       21 -1    0    0  501  502 -0.0000000000e+00 -0.0000000000e+00 -8.3321945828e+01 8.3321945828e+01 0.0000000000e+00 0.0000e+00 -1.0000e+00
       25  2    1    2    0    0 -1.7763568394e-15 +0.0000000000e+00 -3.6455291489e+01 1.3018860017e+02 1.2498033180e+02 0.0000e+00 0.0000e+00
  9000006  2    3    3    0    0 +1.4264092274e+01 +4.1291367822e+01 -3.8971831389e+01 7.0903067783e+01 3.9999999928e+01 0.0000e+00 0.0000e+00
  9000006  2    3    3    0    0 -1.4264092274e+01 -4.1291367822e+01 +2.5165398997e+00 5.9285532383e+01 3.9999999899e+01 0.0000e+00 0.0000e+00
      -11  1    4    4    0    0 +2.0630138758e+01 +1.2275712661e+01 -3.2660870148e+01 4.0534284073e+01 0.0000000000e+00 0.0000e+00 1.0000e+00
       13  1    4    4    0    0 -6.3660464839e+00 +2.9015655161e+01 -6.3109612409e+00 3.0368783710e+01 0.0000000000e+00 0.0000e+00 1.0000e+00
      -11  1    5    5    0    0 -6.0451267638e+00 -2.9322043287e+01 -1.7408018621e+01 3.4631847950e+01 0.0000000000e+00 0.0000e+00 1.0000e+00
       13  1    5    5    0    0 -8.2189655097e+00 -1.1969324535e+01 +1.9924558521e+01 2.4653684433e+01 0.0000000000e+00 0.0000e+00 1.0000e+00
<mgrwt>
<rscale>  0 0.12498033E+03</rscale>
<asrwt>0</asrwt>
<pdfrwt beam="1">  1       21 0.11716664E-01 0.12498033E+03</pdfrwt>
<pdfrwt beam="2">  1       21 0.20830486E-01 0.12498033E+03</pdfrwt>
<totfact> 0.13070503E+06</totfact>
</mgrwt>
</event>
<event>
 9      1 +9.5563000e+06 1.25039200e+02 7.81860800e-03 1.23500800e-01
       21 -1    0    0  502  501 +0.0000000000e+00 +0.0000000000e+00 +1.1697837339e+02 1.1697837339e+02 0.0000000000e+00 0.0000e+00 1.0000e+00
       21 -1    0    0  501  502 -0.0000000000e+00 -0.0000000000e+00 -3.3413892323e+01 3.3413892323e+01 0.0000000000e+00 0.0000e+00 1.0000e+00
       25  2    1    2    0    0 +0.0000000000e+00 -3.5527136788e-15 +8.3564481065e+01 1.5039226571e+02 1.2503923820e+02 0.0000e+00 0.0000e+00
  9000006  2    3    3    0    0 -2.7757618547e+01 +7.8095693782e+00 -4.4455301272e+00 4.9509973741e+01 4.0000000006e+01 0.0000e+00 0.0000e+00
  9000006  2    3    3    0    0 +2.7757618547e+01 -7.8095693782e+00 +8.8010011192e+01 1.0088229197e+02 4.0000000023e+01 0.0000e+00 0.0000e+00
      -11  1    4    4    0    0 -2.7105625996e+01 +1.7034423334e+01 +8.9416724604e+00 3.3239134245e+01 0.0000000000e+00 0.0000e+00 1.0000e+00
       13  1    4    4    0    0 -6.5199255107e-01 -9.2248539563e+00 -1.3387202588e+01 1.6270839497e+01 0.0000000000e+00 0.0000e+00 1.0000e+00
      -11  1    5    5    0    0 +9.6231992638e+00 +1.6277509647e+01 +3.8966256983e+01 4.3312036060e+01 0.0000000000e+00 0.0000e+00 1.0000e+00
       13  1    5    5    0    0 +1.8134419283e+01 -2.4087079025e+01 +4.9043754209e+01 5.7570255910e+01 0.0000000000e+00 0.0000e+00 1.0000e+00
<mgrwt>
<rscale>  0 0.12503924E+03</rscale>
<asrwt>0</asrwt>
<pdfrwt beam="1">  1       21 0.29244592E-01 0.12503924E+03</pdfrwt>
<pdfrwt beam="2">  1       21 0.83534734E-02 0.12503924E+03</pdfrwt>
<totfact> 0.12445076E+06</totfact>
</mgrwt>
</event>
<event>
 9      1 +9.5563000e+06 1.24998400e+02 7.81860800e-03 1.23507200e-01
       21 -1    0    0  502  501 +0.0000000000e+00 +0.0000000000e+00 +3.8310778711e+01 3.8310778711e+01 0.0000000000e+00 0.0000e+00 1.0000e+00
       21 -1    0    0  501  502 -0.0000000000e+00 -0.0000000000e+00 -1.0195947845e+02 1.0195947845e+02 0.0000000000e+00 0.0000e+00 1.0000e+00
       25  2    1    2    0    0 +0.0000000000e+00 +0.0000000000e+00 -6.3648699743e+01 1.4027025717e+02 1.2499835225e+02 0.0000e+00 0.0000e+00
  9000006  2    3    3    0    0 +2.7398752776e+01 +2.5302232298e+01 -6.5773721633e+01 8.5539915176e+01 4.0000000225e+01 0.0000e+00 0.0000e+00
  9000006  2    3    3    0    0 -2.7398752776e+01 -2.5302232298e+01 +2.1250218897e+00 5.4730341989e+01 4.0000000041e+01 0.0000e+00 0.0000e+00
      -11  1    5    5    0    0 -3.6041188010e+01 -1.1050448955e+01 -1.2785908354e+00 3.7718887176e+01 0.0000000000e+00 0.0000e+00 1.0000e+00
       13  1    4    4    0    0 +3.0290260558e+01 +6.0857949944e+00 -5.5594436919e+01 6.3602501537e+01 0.0000000000e+00 0.0000e+00 1.0000e+00
      -11  1    4    4    0    0 -2.8915077827e+00 +1.9216437304e+01 -1.0179284714e+01 2.1937413640e+01 0.0000000000e+00 0.0000e+00 1.0000e+00
       13  1    5    5    0    0 +8.6424352346e+00 -1.4251783344e+01 +3.4036127251e+00 1.7011454813e+01 0.0000000000e+00 0.0000e+00 1.0000e+00
<mgrwt>
<rscale>  0 0.12499835E+03</rscale>
<asrwt>0</asrwt>
<pdfrwt beam="1">  1       21 0.95776947E-02 0.12499835E+03</pdfrwt>
<pdfrwt beam="2">  1       21 0.25489869E-01 0.12499835E+03</pdfrwt>
<totfact> 0.12756396E+06</totfact>
</mgrwt>
</event>
<event>
 9      1 +9.5563000e+06 1.24999200e+02 7.81860800e-03 1.23507000e-01
       21 -1    0    0  502  501 +0.0000000000e+00 +0.0000000000e+00 +2.6666478874e+02 2.6666478874e+02 0.0000000000e+00 0.0000e+00 -1.0000e+00
       21 -1    0    0  501  502 -0.0000000000e+00 -0.0000000000e+00 -1.4648359281e+01 1.4648359281e+01 0.0000000000e+00 0.0000e+00 -1.0000e+00
       25  2    1    2    0    0 +0.0000000000e+00 +3.5527136788e-15 +2.5201642946e+02 2.8131314802e+02 1.2499922613e+02 0.0000e+00 0.0000e+00
  9000006  2    3    3    0    0 -3.2103692517e+01 +2.9718405079e+01 +1.7058729764e+02 1.8059306963e+02 4.0000000104e+01 0.0000e+00 0.0000e+00
  9000006  2    3    3    0    0 +3.2103692517e+01 -2.9718405079e+01 +8.1429131814e+01 1.0072007839e+02 4.0000000108e+01 0.0000e+00 0.0000e+00
      -11  1    5    5    0    0 +7.2909697523e+00 -1.1013567324e+01 -3.7462529639e-01 1.3213525239e+01 0.0000000000e+00 0.0000e+00 1.0000e+00
       13  1    4    4    0    0 -3.2963440273e+01 +2.6480045333e+01 +8.4956268013e+01 9.4896515585e+01 0.0000000000e+00 0.0000e+00 1.0000e+00
      -11  1    4    4    0    0 +8.5974775558e-01 +3.2383597452e+00 +8.5631029629e+01 8.5696554046e+01 0.0000000000e+00 0.0000e+00 1.0000e+00
       13  1    5    5    0    0 +2.4812722765e+01 -1.8704837754e+01 +8.1803757110e+01 8.7506553148e+01 0.0000000000e+00 0.0000e+00 1.0000e+00
<mgrwt>
<rscale>  0 0.12499923E+03</rscale>
<asrwt>0</asrwt>
<pdfrwt beam="1">  1       21 0.66666182E-01 0.12499923E+03</pdfrwt>
<pdfrwt beam="2">  1       21 0.36620907E-02 0.12499923E+03</pdfrwt>
<totfact> 0.94013545E+05</totfact>
</mgrwt>
</event>
<event>
 9      1 +9.5563000e+06 1.24997100e+02 7.81860800e-03 1.23507400e-01
       21 -1    0    0  502  501 +0.0000000000e+00 +0.0000000000e+00 +1.3992961155e+02 1.3992961155e+02 0.0000000000e+00 0.0000e+00 1.0000e+00
       21 -1    0    0  501  502 -0.0000000000e+00 -0.0000000000e+00 -2.7914511163e+01 2.7914511163e+01 0.0000000000e+00 0.0000e+00 1.0000e+00
       25  2    1    2    0    0 +1.7763568394e-15 +0.0000000000e+00 +1.1201510038e+02 1.6784412271e+02 1.2499706722e+02 0.0000e+00 0.0000e+00
  9000006  2    3    3    0    0 +7.5678877110e+00 +1.2072481422e+01 -5.5712203366e+00 4.2825881939e+01 3.9999999197e+01 0.0000e+00 0.0000e+00
  9000006  2    3    3    0    0 -7.5678877110e+00 -1.2072481422e+01 +1.1758632072e+02 1.2501824077e+02 3.9999999657e+01 0.0000e+00 0.0000e+00
      -11  1    4    4    0    0 -1.3471003743e+01 +1.5574037339e+01 +6.7180879629e-01 2.0602667496e+01 0.0000000000e+00 0.0000e+00 1.0000e+00
       13  1    4    4    0    0 +2.1038891454e+01 -3.5015559175e+00 -6.2430291329e+00 2.2223214444e+01 0.0000000000e+00 0.0000e+00 1.0000e+00
      -11  1    5    5    0    0 +9.9748826606e+00 +1.0092512811e+01 +3.8426491376e+01 4.0962816534e+01 0.0000000000e+00 0.0000e+00 1.0000e+00
       13  1    5    5    0    0 -1.7542770372e+01 -2.2164994232e+01 +7.9159829344e+01 8.4055424236e+01 0.0000000000e+00 0.0000e+00 1.0000e+00
<mgrwt>
<rscale>  0 0.12499707E+03</rscale>
<asrwt>0</asrwt>
<pdfrwt beam="1">  1       21 0.34982401E-01 0.12499707E+03</pdfrwt>
<pdfrwt beam="2">  1       21 0.69786282E-02 0.12499707E+03</pdfrwt>
<totfact> 0.11969804E+06</totfact>
</mgrwt>
</event>
<event>
 9      1 +9.5563000e+06 1.24998700e+02 7.81860800e-03 1.23507100e-01
       21 -1    0    0  502  501 +0.0000000000e+00 +0.0000000000e+00 +1.0849601578e+02 1.0849601578e+02 0.0000000000e+00 0.0000e+00 1.0000e+00
       21 -1    0    0  501  502 -0.0000000000e+00 -0.0000000000e+00 -3.6002860638e+01 3.6002860638e+01 0.0000000000e+00 0.0000e+00 1.0000e+00
       25  2    1    2    0    0 -3.5527136788e-15 +4.4408920985e-16 +7.2493155138e+01 1.4449887641e+02 1.2499867096e+02 0.0000e+00 0.0000e+00
  9000006  2    3    3    0    0 +2.2422085527e+01 +3.0579814852e+00 -1.2717576437e+01 4.7684776475e+01 3.9999999836e+01 0.0000e+00 0.0000e+00
  9000006  2    3    3    0    0 -2.2422085527e+01 -3.0579814852e+00 +8.5210731575e+01 9.6814099939e+01 4.0000000016e+01 0.0000e+00 0.0000e+00
      -11  1    5    5    0    0 +3.0032519863e+00 -1.6731818460e+01 +2.8708134619e+01 3.3363606891e+01 0.0000000000e+00 0.0000e+00 1.0000e+00
       13  1    4    4    0    0 +1.0763677769e+01 -3.2809207486e+00 +1.3935153378e+01 1.7911161317e+01 0.0000000000e+00 0.0000e+00 1.0000e+00
      -11  1    4    4    0    0 +1.1658407758e+01 +6.3389022338e+00 -2.6652729815e+01 2.9773615158e+01 0.0000000000e+00 0.0000e+00 1.0000e+00
       13  1    5    5    0    0 -2.5425337514e+01 +1.3673836975e+01 +5.6502596956e+01 6.3450493048e+01 0.0000000000e+00 0.0000e+00 1.0000e+00
<mgrwt>
<rscale>  0 0.12499867E+03</rscale>
<asrwt>0</asrwt>
<pdfrwt beam="1">  1       21 0.27124003E-01 0.12499867E+03</pdfrwt>
<pdfrwt beam="2">  1       21 0.90007154E-02 0.12499867E+03</pdfrwt>
<totfact> 0.12631169E+06</totfact>
</mgrwt>
</event>
<event>
 9      1 +9.5563000e+06 1.25007300e+02 7.81860800e-03 1.23505800e-01
       21 -1    0    0  502  501 +0.0000000000e+00 +0.0000000000e+00 +1.9868367253e+02 1.9868367253e+02 0.0000000000e+00 0.0000e+00 1.0000e+00
       21 -1    0    0  501  502 -0.0000000000e+00 -0.0000000000e+00 -1.9662931957e+01 1.9662931957e+01 0.0000000000e+00 0.0000e+00 1.0000e+00
       25  2    1    2    0    0 +0.0000000000e+00 +0.0000000000e+00 +1.7902074057e+02 2.1834660449e+02 1.2500725633e+02 0.0000e+00 0.0000e+00
  9000006  2    3    3    0    0 +2.2310249927e+01 +3.2459963126e+01 +1.3751388033e+02 1.4853101950e+02 4.0000000128e+01 0.0000e+00 0.0000e+00
  9000006  2    3    3    0    0 -2.2310249927e+01 -3.2459963126e+01 +4.1506860239e+01 6.9815584991e+01 4.0000000033e+01 0.0000e+00 0.0000e+00
      -11  1    5    5    0    0 -6.5453640904e+00 -1.5501433659e+01 +4.3435675053e+01 4.6581048763e+01 0.0000000000e+00 0.0000e+00 1.0000e+00
       13  1    4    4    0    0 +5.2912475083e+00 -9.4261965300e+00 +3.0477106041e+01 3.2337354157e+01 0.0000000000e+00 0.0000e+00 1.0000e+00
      -11  1    4    4    0    0 +1.7019002419e+01 +4.1886159656e+01 +1.0703677429e+02 1.1619366534e+02 0.0000000000e+00 0.0000e+00 1.0000e+00
       13  1    5    5    0    0 -1.5764885837e+01 -1.6958529467e+01 -1.9288148133e+00 2.3234536228e+01 0.0000000000e+00 0.0000e+00 1.0000e+00
<mgrwt>
<rscale>  0 0.12500726E+03</rscale>
<asrwt>0</asrwt>
<pdfrwt beam="1">  1       21 0.49670912E-01 0.12500726E+03</pdfrwt>
<pdfrwt beam="2">  1       21 0.49157336E-02 0.12500726E+03</pdfrwt>
<totfact> 0.10708373E+06</totfact>
</mgrwt>
</event>
</LesHouchesEvents>
